   9   9   0   0
  0.1263398E+02  0.4916558E-09  0.4916558E-09  0.5431625E-09  0.5000000E-15
   1.0000000000000000E-004
  CAR 
 unknown system                          
     13.08928494    -19.84810021  301      1.24555020      1.00000000
    -19.848  0.0000E+00  0.0000E+00
    -19.738  0.0000E+00  0.0000E+00
    -19.629  0.0000E+00  0.0000E+00
    -19.519  0.0000E+00  0.0000E+00
    -19.409  0.0000E+00  0.0000E+00
    -19.299  0.0000E+00  0.0000E+00
    -19.189  0.0000E+00  0.0000E+00
    -19.080  0.0000E+00  0.0000E+00
    -18.970  0.0000E+00  0.0000E+00
    -18.860  0.0000E+00  0.0000E+00
    -18.750  0.0000E+00  0.0000E+00
    -18.640  0.0000E+00  0.0000E+00
    -18.531  0.0000E+00  0.0000E+00
    -18.421  0.9010E-04  0.9892E-05
    -18.311  0.1768E+00  0.1943E-01
    -18.201  0.1374E+01  0.1703E+00
    -18.091  0.2160E+01  0.4075E+00
    -17.982  0.1370E+01  0.5579E+00
    -17.872  0.5476E+01  0.1159E+01
    -17.762  0.7377E+01  0.1969E+01
    -17.652  0.1558E+01  0.2140E+01
    -17.542  0.7325E+00  0.2220E+01
    -17.433  0.2472E+01  0.2492E+01
    -17.323  0.9087E+01  0.3490E+01
    -17.213  0.2574E+01  0.3772E+01
    -17.103  0.8007E+00  0.3860E+01
    -16.994  0.6277E+00  0.3929E+01
    -16.884  0.2634E+01  0.4218E+01
    -16.774  0.8114E+01  0.5109E+01
    -16.664  0.3941E+01  0.5542E+01
    -16.554  0.4988E+00  0.5596E+01
    -16.445  0.2038E+01  0.5820E+01
    -16.335  0.1424E+01  0.5977E+01
    -16.225  0.2074E+02  0.8253E+01
    -16.115  0.3401E+02  0.1199E+02
    -16.005  0.1216E+00  0.1200E+02
    -15.896  0.0000E+00  0.1200E+02
    -15.786  0.0000E+00  0.1200E+02
    -15.676  0.0000E+00  0.1200E+02
    -15.566  0.0000E+00  0.1200E+02
    -15.456  0.0000E+00  0.1200E+02
    -15.347  0.0000E+00  0.1200E+02
    -15.237  0.0000E+00  0.1200E+02
    -15.127  0.0000E+00  0.1200E+02
    -15.017  0.0000E+00  0.1200E+02
    -14.907  0.0000E+00  0.1200E+02
    -14.798  0.0000E+00  0.1200E+02
    -14.688  0.0000E+00  0.1200E+02
    -14.578  0.0000E+00  0.1200E+02
    -14.468  0.0000E+00  0.1200E+02
    -14.359  0.0000E+00  0.1200E+02
    -14.249  0.0000E+00  0.1200E+02
    -14.139  0.0000E+00  0.1200E+02
    -14.029  0.0000E+00  0.1200E+02
    -13.919  0.0000E+00  0.1200E+02
    -13.810  0.0000E+00  0.1200E+02
    -13.700  0.0000E+00  0.1200E+02
    -13.590  0.0000E+00  0.1200E+02
    -13.480  0.0000E+00  0.1200E+02
    -13.370  0.0000E+00  0.1200E+02
    -13.261  0.0000E+00  0.1200E+02
    -13.151  0.0000E+00  0.1200E+02
    -13.041  0.0000E+00  0.1200E+02
    -12.931  0.0000E+00  0.1200E+02
    -12.821  0.0000E+00  0.1200E+02
    -12.712  0.0000E+00  0.1200E+02
    -12.602  0.0000E+00  0.1200E+02
    -12.492  0.0000E+00  0.1200E+02
    -12.382  0.0000E+00  0.1200E+02
    -12.273  0.0000E+00  0.1200E+02
    -12.163  0.0000E+00  0.1200E+02
    -12.053  0.0000E+00  0.1200E+02
    -11.943  0.0000E+00  0.1200E+02
    -11.833  0.0000E+00  0.1200E+02
    -11.724  0.0000E+00  0.1200E+02
    -11.614  0.0000E+00  0.1200E+02
    -11.504  0.0000E+00  0.1200E+02
    -11.394  0.0000E+00  0.1200E+02
    -11.284  0.0000E+00  0.1200E+02
    -11.175  0.0000E+00  0.1200E+02
    -11.065  0.0000E+00  0.1200E+02
    -10.955  0.0000E+00  0.1200E+02
    -10.845  0.0000E+00  0.1200E+02
    -10.735  0.0000E+00  0.1200E+02
    -10.626  0.0000E+00  0.1200E+02
    -10.516  0.0000E+00  0.1200E+02
    -10.406  0.0000E+00  0.1200E+02
    -10.296  0.0000E+00  0.1200E+02
    -10.186  0.0000E+00  0.1200E+02
    -10.077  0.0000E+00  0.1200E+02
     -9.967  0.0000E+00  0.1200E+02
     -9.857  0.0000E+00  0.1200E+02
     -9.747  0.0000E+00  0.1200E+02
     -9.638  0.0000E+00  0.1200E+02
     -9.528  0.0000E+00  0.1200E+02
     -9.418  0.0000E+00  0.1200E+02
     -9.308  0.0000E+00  0.1200E+02
     -9.198  0.0000E+00  0.1200E+02
     -9.089  0.0000E+00  0.1200E+02
     -8.979  0.0000E+00  0.1200E+02
     -8.869  0.0000E+00  0.1200E+02
     -8.759  0.0000E+00  0.1200E+02
     -8.649  0.0000E+00  0.1200E+02
     -8.540  0.0000E+00  0.1200E+02
     -8.430  0.1416E-15  0.1200E+02
     -8.320  0.4696E-03  0.1200E+02
     -8.210  0.1801E+00  0.1202E+02
     -8.100  0.1583E-02  0.1202E+02
     -7.991  0.2366E+00  0.1205E+02
     -7.881  0.1221E+01  0.1218E+02
     -7.771  0.1311E+00  0.1219E+02
     -7.661  0.2055E+01  0.1242E+02
     -7.551  0.1259E-02  0.1242E+02
     -7.442  0.1266E+01  0.1256E+02
     -7.332  0.4750E+01  0.1308E+02
     -7.222  0.4702E+01  0.1360E+02
     -7.112  0.2761E+01  0.1390E+02
     -7.003  0.1122E-01  0.1390E+02
     -6.893  0.2072E+01  0.1413E+02
     -6.783  0.1032E+00  0.1414E+02
     -6.673  0.0000E+00  0.1414E+02
     -6.563  0.4360E-04  0.1414E+02
     -6.454  0.1017E+01  0.1425E+02
     -6.344  0.1548E+01  0.1442E+02
     -6.234  0.2438E+01  0.1469E+02
     -6.124  0.6524E+01  0.1541E+02
     -6.014  0.2687E+01  0.1570E+02
     -5.905  0.4341E+00  0.1575E+02
     -5.795  0.1017E+01  0.1586E+02
     -5.685  0.1204E-03  0.1586E+02
     -5.575  0.1338E-04  0.1586E+02
     -5.465  0.1013E+01  0.1597E+02
     -5.356  0.3193E+01  0.1632E+02
     -5.246  0.3320E+01  0.1669E+02
     -5.136  0.1618E+01  0.1686E+02
     -5.026  0.4307E+01  0.1734E+02
     -4.916  0.3003E-01  0.1734E+02
     -4.807  0.1687E+01  0.1753E+02
     -4.697  0.2645E+01  0.1782E+02
     -4.587  0.2404E+00  0.1784E+02
     -4.477  0.5333E+00  0.1790E+02
     -4.368  0.6879E+01  0.1866E+02
     -4.258  0.1348E+02  0.2014E+02
     -4.148  0.6276E+01  0.2082E+02
     -4.038  0.4839E+01  0.2136E+02
     -3.928  0.7016E+01  0.2213E+02
     -3.819  0.4487E+01  0.2262E+02
     -3.709  0.6506E+01  0.2333E+02
     -3.599  0.4397E+01  0.2382E+02
     -3.489  0.1056E+01  0.2393E+02
     -3.379  0.6229E+00  0.2400E+02
     -3.270  0.3142E-06  0.2400E+02
     -3.160  0.0000E+00  0.2400E+02
     -3.050  0.0000E+00  0.2400E+02
     -2.940  0.0000E+00  0.2400E+02
     -2.830  0.0000E+00  0.2400E+02
     -2.721  0.0000E+00  0.2400E+02
     -2.611  0.0000E+00  0.2400E+02
     -2.501  0.0000E+00  0.2400E+02
     -2.391  0.0000E+00  0.2400E+02
     -2.281  0.5951E-05  0.2400E+02
     -2.172  0.9505E+00  0.2410E+02
     -2.062  0.1091E+02  0.2530E+02
     -1.952  0.5929E+01  0.2595E+02
     -1.842  0.8604E+01  0.2690E+02
     -1.733  0.6425E+01  0.2760E+02
     -1.623  0.3801E+01  0.2802E+02
     -1.513  0.1085E+02  0.2921E+02
     -1.403  0.4989E+01  0.2976E+02
     -1.293  0.3693E+01  0.3017E+02
     -1.184  0.7645E+01  0.3100E+02
     -1.074  0.7276E+01  0.3180E+02
     -0.964  0.6842E+01  0.3255E+02
     -0.854  0.1075E+02  0.3373E+02
     -0.744  0.3832E+01  0.3416E+02
     -0.635  0.5399E+01  0.3475E+02
     -0.525  0.9105E+01  0.3575E+02
     -0.415  0.8646E+01  0.3670E+02
     -0.305  0.8403E+01  0.3762E+02
     -0.195  0.8808E+01  0.3859E+02
     -0.086  0.5948E+01  0.3924E+02
      0.024  0.1007E+02  0.4034E+02
      0.134  0.1089E+02  0.4154E+02
      0.244  0.5624E+01  0.4216E+02
      0.353  0.7933E+01  0.4303E+02
      0.463  0.7206E+01  0.4382E+02
      0.573  0.3819E+01  0.4424E+02
      0.683  0.5827E+01  0.4488E+02
      0.793  0.9048E+01  0.4587E+02
      0.902  0.7769E+01  0.4673E+02
      1.012  0.8948E+01  0.4771E+02
      1.122  0.2662E+01  0.4800E+02
      1.232  0.2428E-03  0.4800E+02
      1.342  0.0000E+00  0.4800E+02
      1.451  0.0000E+00  0.4800E+02
      1.561  0.0000E+00  0.4800E+02
      1.671  0.0000E+00  0.4800E+02
      1.781  0.0000E+00  0.4800E+02
      1.891  0.0000E+00  0.4800E+02
      2.000  0.0000E+00  0.4800E+02
      2.110  0.0000E+00  0.4800E+02
      2.220  0.0000E+00  0.4800E+02
      2.330  0.0000E+00  0.4800E+02
      2.440  0.0000E+00  0.4800E+02
      2.549  0.0000E+00  0.4800E+02
      2.659  0.0000E+00  0.4800E+02
      2.769  0.0000E+00  0.4800E+02
      2.879  0.0000E+00  0.4800E+02
      2.988  0.0000E+00  0.4800E+02
      3.098  0.0000E+00  0.4800E+02
      3.208  0.0000E+00  0.4800E+02
      3.318  0.0000E+00  0.4800E+02
      3.428  0.0000E+00  0.4800E+02
      3.537  0.0000E+00  0.4800E+02
      3.647  0.0000E+00  0.4800E+02
      3.757  0.0000E+00  0.4800E+02
      3.867  0.0000E+00  0.4800E+02
      3.977  0.0000E+00  0.4800E+02
      4.086  0.0000E+00  0.4800E+02
      4.196  0.0000E+00  0.4800E+02
      4.306  0.0000E+00  0.4800E+02
      4.416  0.0000E+00  0.4800E+02
      4.526  0.0000E+00  0.4800E+02
      4.635  0.0000E+00  0.4800E+02
      4.745  0.0000E+00  0.4800E+02
      4.855  0.0000E+00  0.4800E+02
      4.965  0.0000E+00  0.4800E+02
      5.075  0.0000E+00  0.4800E+02
      5.184  0.0000E+00  0.4800E+02
      5.294  0.0000E+00  0.4800E+02
      5.404  0.0000E+00  0.4800E+02
      5.514  0.0000E+00  0.4800E+02
      5.623  0.0000E+00  0.4800E+02
      5.733  0.0000E+00  0.4800E+02
      5.843  0.0000E+00  0.4800E+02
      5.953  0.0000E+00  0.4800E+02
      6.063  0.0000E+00  0.4800E+02
      6.172  0.0000E+00  0.4800E+02
      6.282  0.0000E+00  0.4800E+02
      6.392  0.0000E+00  0.4800E+02
      6.502  0.0000E+00  0.4800E+02
      6.612  0.0000E+00  0.4800E+02
      6.721  0.0000E+00  0.4800E+02
      6.831  0.7078E-16  0.4800E+02
      6.941  0.3564E-03  0.4800E+02
      7.051  0.1798E+00  0.4802E+02
      7.161  0.2003E-02  0.4802E+02
      7.270  0.0000E+00  0.4802E+02
      7.380  0.0000E+00  0.4802E+02
      7.490  0.2459E-06  0.4802E+02
      7.600  0.7700E+00  0.4810E+02
      7.710  0.6873E+00  0.4818E+02
      7.819  0.1151E-06  0.4818E+02
      7.929  0.7106E-12  0.4818E+02
      8.039  0.3218E-01  0.4818E+02
      8.149  0.2141E+01  0.4842E+02
      8.258  0.1275E-01  0.4842E+02
      8.368  0.2160E-13  0.4842E+02
      8.478  0.9285E-02  0.4842E+02
      8.588  0.1081E+01  0.4854E+02
      8.698  0.2892E-02  0.4854E+02
      8.807  0.5525E-02  0.4854E+02
      8.917  0.3188E+01  0.4889E+02
      9.027  0.4497E+00  0.4894E+02
      9.137  0.2331E+00  0.4897E+02
      9.247  0.2998E+01  0.4929E+02
      9.356  0.1137E+01  0.4942E+02
      9.466  0.5016E-02  0.4942E+02
      9.576  0.1192E+01  0.4955E+02
      9.686  0.1178E+01  0.4968E+02
      9.796  0.3081E+01  0.5002E+02
      9.905  0.8891E+00  0.5012E+02
     10.015  0.1310E+01  0.5026E+02
     10.125  0.1838E+01  0.5046E+02
     10.235  0.6226E+01  0.5115E+02
     10.345  0.8414E+01  0.5207E+02
     10.454  0.4442E+01  0.5256E+02
     10.564  0.6362E+01  0.5326E+02
     10.674  0.7221E+01  0.5405E+02
     10.784  0.2793E+01  0.5435E+02
     10.893  0.4419E+01  0.5484E+02
     11.003  0.6741E+01  0.5558E+02
     11.113  0.5462E+01  0.5618E+02
     11.223  0.4698E+01  0.5670E+02
     11.333  0.5849E+01  0.5734E+02
     11.442  0.3859E+01  0.5776E+02
     11.552  0.1113E+01  0.5788E+02
     11.662  0.1061E+01  0.5800E+02
     11.772  0.5406E-03  0.5800E+02
     11.882  0.0000E+00  0.5800E+02
     11.991  0.0000E+00  0.5800E+02
     12.101  0.0000E+00  0.5800E+02
     12.211  0.0000E+00  0.5800E+02
     12.321  0.0000E+00  0.5800E+02
     12.431  0.0000E+00  0.5800E+02
     12.540  0.0000E+00  0.5800E+02
     12.650  0.0000E+00  0.5800E+02
     12.760  0.0000E+00  0.5800E+02
     12.870  0.0000E+00  0.5800E+02
     12.979  0.0000E+00  0.5800E+02
     13.089  0.0000E+00  0.5800E+02
