 vasp.6.4.3 19Mar24 (build Jul  1 2025 23:09:51) complex                         
 executed on             LinuxGNU date 2025.12.31  15:39:17
 running   14 mpi-ranks, with   14 threads/rank, on    1 nodes
 distrk:  each k-point on   14 cores,    1 groups
 distr:  one band on NCORE=   1 cores,   14 groups


--------------------------------------------------------------------------------------------------------


 INCAR:
   GGA = PE
   PREC = Accurate
   ENCUT = 520
   KSPACING = 0.3
   ISMEAR = 0
   SIGMA = 0.03
   EDIFF = 1e-6
   NELM = 120
   NELMIN = 8
   ISIF = 2
   IBRION = 1
   EDIFFG = -1e-3
   NSW = 200

 POTCAR:    PAW_PBE Zn 06Sep2000                  
 POTCAR:    PAW_PBE S 06Sep2000                   
 POTCAR:    PAW_PBE Zn 06Sep2000                  
   SHA256 =  501fddbd8274dd8e9725d4f3de27861d7f1e553a7e18441bc79fed8f346e7f23 Zn/POTCAR             
   COPYR  = (c) Copyright 06Sep2000 Georg Kresse                                                    
   COPYR  = This file is part of the software VASP. Any use, copying, and all other rights are regul
   COPYR  = If you do not have a valid VASP license, you may not use, copy or distribute this file. 
   VRHFIN =Zn: d10 p2                                                                               
   LEXCH  = PE                                                                                      
   EATOM  =  1748.8345 eV,  128.5357 Ry                                                             
                                                                                                    
   TITEL  = PAW_PBE Zn 06Sep2000                                                                    
   LULTRA =        F    use ultrasoft PP ?                                                          
   IUNSCR =        1    unscreen: 0-lin 1-nonlin 2-no                                               
   RPACOR =    2.000    partial core radius                                                         
   POMASS =   65.390; ZVAL   =   12.000    mass and valenz                                          
   RCORE  =    2.300    outmost cutoff radius                                                       
   RWIGS  =    2.400; RWIGS  =    1.270    wigner-seitz radius (au A)                               
   ENMAX  =  276.723; ENMIN  =  207.542 eV                                                          
   RCLOC  =    1.828    cutoff for local pot                                                        
   LCOR   =        T    correct aug charges                                                         
   LPAW   =        T    paw PP                                                                      
   EAUG   =  575.892                                                                                
   DEXC   =    0.000                                                                                
   RMAX   =    2.347    core radius for proj-oper                                                   
   RAUG   =    1.300    factor for augmentation sphere                                              
   RDEP   =    2.324    radius for radial grids                                                     
   RDEPT  =    1.788    core radius for aug-charge                                                  
                                                                                                    
   Atomic configuration                                                                             
    9 entries                                                                                       
     n  l   j            E        occ.                                                              
     1  0  0.50     -9524.6913   2.0000                                                             
     2  0  0.50     -1158.1882   2.0000                                                             
     2  1  1.50     -1003.8506   6.0000                                                             
     3  0  0.50      -129.2194   2.0000                                                             
     3  1  1.50       -83.3890   6.0000                                                             
     3  2  2.50       -10.1410  10.0000                                                             
     4  0  0.50        -5.9785   2.0000                                                             
     4  1  0.50        -4.0817   0.0000                                                             
     4  3  2.50        -1.3606   0.0000                                                             
   Description                                                                                      
     l       E           TYP  RCUT    TYP  RCUT                                                     
     2    -10.1410010     23  2.300                                                                 
     2    -11.5015836     23  2.300                                                                 
     0     -5.9785163     23  2.300                                                                 
     0      1.1858015     23  2.300                                                                 
     1     -2.7211652     23  2.300                                                                 
     1     13.2444212     23  2.300                                                                 
  local pseudopotential read in
  partial core-charges read in
  partial kinetic energy density read in
  atomic valenz-charges read in
  non local Contribution for L=           2  read in
    real space projection operators read in
  non local Contribution for L=           2  read in
    real space projection operators read in
  non local Contribution for L=           0  read in
    real space projection operators read in
  non local Contribution for L=           0  read in
    real space projection operators read in
  non local Contribution for L=           1  read in
    real space projection operators read in
  non local Contribution for L=           1  read in
    real space projection operators read in
    PAW grid and wavefunctions read in

   number of l-projection  operators is LMAX  =           6
   number of lm-projection operators is LMMAX =          18

 POTCAR:    PAW_PBE S 06Sep2000                   
   SHA256 =  0fc7481fb0695f01bdc6462160264c5c84044ae9ec85a907d398b887a2bc3132 S/POTCAR              
   COPYR  = (c) Copyright 06Sep2000 Georg Kresse                                                    
   COPYR  = This file is part of the software VASP. Any use, copying, and all other rights are regul
   COPYR  = If you do not have a valid VASP license, you may not use, copy or distribute this file. 
   VRHFIN =S : s2p4                                                                                 
   LEXCH  = PE                                                                                      
   EATOM  =   276.8230 eV,   20.3459 Ry                                                             
                                                                                                    
   TITEL  = PAW_PBE S 06Sep2000                                                                     
   LULTRA =        F    use ultrasoft PP ?                                                          
   IUNSCR =        1    unscreen: 0-lin 1-nonlin 2-no                                               
   RPACOR =    1.500    partial core radius                                                         
   POMASS =   32.066; ZVAL   =    6.000    mass and valenz                                          
   RCORE  =    1.900    outmost cutoff radius                                                       
   RWIGS  =    2.200; RWIGS  =    1.164    wigner-seitz radius (au A)                               
   ENMAX  =  258.689; ENMIN  =  194.016 eV                                                          
   ICORE  =        2    local potential                                                             
   LCOR   =        T    correct aug charges                                                         
   LPAW   =        T    paw PP                                                                      
   EAUG   =  335.092                                                                                
   DEXC   =    0.000                                                                                
   RMAX   =    1.942    core radius for proj-oper                                                   
   RAUG   =    1.300    factor for augmentation sphere                                              
   RDEP   =    1.954    radius for radial grids                                                     
   RDEPT  =    1.744    core radius for aug-charge                                                  
                                                                                                    
   Atomic configuration                                                                             
    6 entries                                                                                       
     n  l   j            E        occ.                                                              
     1  0  0.50     -2405.8406   2.0000                                                             
     2  0  0.50      -211.7007   2.0000                                                             
     2  1  1.50      -156.4958   6.0000                                                             
     3  0  0.50       -17.2562   2.0000                                                             
     3  1  0.50        -7.0085   4.0000                                                             
     3  2  1.50        -6.8029   0.0000                                                             
   Description                                                                                      
     l       E           TYP  RCUT    TYP  RCUT                                                     
     0    -17.2561641     23  1.900                                                                 
     0    -15.8743224     23  1.900                                                                 
     1     -7.0085400     23  1.900                                                                 
     1     -2.7779785     23  1.900                                                                 
     2     -6.8029130     23  1.900                                                                 
  local pseudopotential read in
  partial core-charges read in
  partial kinetic energy density read in
  atomic valenz-charges read in
  non local Contribution for L=           0  read in
    real space projection operators read in
  non local Contribution for L=           0  read in
    real space projection operators read in
  non local Contribution for L=           1  read in
    real space projection operators read in
  non local Contribution for L=           1  read in
    real space projection operators read in
    PAW grid and wavefunctions read in

   number of l-projection  operators is LMAX  =           4
   number of lm-projection operators is LMMAX =           8

  PAW_PBE Zn 06Sep2000                  :
 energy of atom  1       EATOM=-1748.8345
 kinetic energy error for atom=    0.0029 (will be added to EATOM!!)
  PAW_PBE S 06Sep2000                   :
 energy of atom  2       EATOM= -276.8230
 kinetic energy error for atom=    0.0016 (will be added to EATOM!!)


 POSCAR: Zn S
  positions in cartesian coordinates
  velocities in cartesian coordinates


 exchange-correlation table for PE
   RHO(1)=    0.500       N(1)  =     2000
   RHO(2)=  100.500       N(2)  =     4000



--------------------------------------------------------------------------------------------------------


 ion  position               nearest neighbor table
   1  0.333  0.667  0.000-   4 2.38   4 2.38   4 2.38   3 2.39
   2  0.667  0.333  0.500-   3 2.38   3 2.38   3 2.38   4 2.39
   3  0.333  0.667  0.375-   2 2.38   2 2.38   2 2.38   1 2.39
   4  0.667  0.333  0.875-   1 2.38   1 2.38   1 2.38   2 2.39

  LATTYP: Found a hexagonal cell.
 ALAT       =     3.8871311045
 C/A-ratio  =     1.6395977843
  
  Lattice vectors:
  
 A1 = (   1.9435655523,  -3.3663542844,  -0.0000000000)
 A2 = (   1.9435655523,   3.3663542844,   0.0000000000)
 A3 = (   0.0000000000,   0.0000000000,   6.3733315464)


Analysis of symmetry for initial positions (statically):
=====================================================================
 Subroutine PRICEL returns:
 Original cell was already a primitive cell.
 

 Routine SETGRP: Setting up the symmetry group for a 
 hexagonal supercell.


 Subroutine GETGRP returns: Found 12 space group operations
 (whereof  6 operations were pure point group operations)
 out of a pool of 24 trial point group operations.


The static configuration has the point symmetry C_3v.
 The point group associated with its full space group is C_6v.


Analysis of symmetry for dynamics (positions and initial velocities):
=====================================================================
 Subroutine PRICEL returns:
 Original cell was already a primitive cell.
 

 Routine SETGRP: Setting up the symmetry group for a 
 hexagonal supercell.


 Subroutine GETGRP returns: Found 12 space group operations
 (whereof  6 operations were pure point group operations)
 out of a pool of 24 trial point group operations.


The dynamic configuration has the point symmetry C_3v.
 The point group associated with its full space group is C_6v.


 Subroutine INISYM returns: Found 12 space group operations
 (whereof  6 operations are pure point group operations),
 and found     1 'primitive' translations


----------------------------------------------------------------------------------------

                                     Primitive cell                                     

  volume of cell :      83.3980

  direct lattice vectors                    reciprocal lattice vectors
     1.943565552 -3.366354284 -0.000000000     0.257259139 -0.148528633  0.000000000
     1.943565552  3.366354284  0.000000000     0.257259139  0.148528633 -0.000000000
     0.000000000  0.000000000  6.373331546     0.000000000 -0.000000000  0.156903810

  length of vectors
     3.887131105  3.887131105  6.373331546     0.297057266  0.297057266  0.156903810

  position of ions in fractional coordinates (direct lattice)
     0.333333333  0.666666667  0.000260133
     0.666666667  0.333333333  0.500260133
     0.333333333  0.666666667  0.374739867
     0.666666667  0.333333333  0.874739867

  ion indices of the primitive-cell ions
   primitive index   ion index
                 1           1
                 2           2
                 3           3
                 4           4

----------------------------------------------------------------------------------------



 KPOINTS: Automatic kpoint scheme                 

Automatic generation of k-mesh.
 Grid dimensions read from file:
 generate k-points for:    6    6    4

 Generating k-lattice:

  Cartesian coordinates                     Fractional coordinates (reciprocal lattice)
     0.042876523 -0.024754772  0.000000000     0.166666667  0.000000000  0.000000000
     0.042876523  0.024754772 -0.000000000     0.000000000  0.166666667  0.000000000
     0.000000000 -0.000000000  0.039225952     0.000000000  0.000000000  0.250000000

  Length of vectors
     0.049509544  0.049509544  0.039225952

  Shift w.r.t. Gamma in fractional coordinates (k-lattice)
     0.000000000  0.000000000  0.000000000

 
 Subroutine IBZKPT returns following result:
 ===========================================
 
 Found     21 irreducible k-points:
 
 Following reciprocal coordinates:
            Coordinates               Weight
  0.000000  0.000000  0.000000      1.000000
  0.166667  0.000000  0.000000      6.000000
  0.333333  0.000000  0.000000      6.000000
  0.500000  0.000000  0.000000      3.000000
  0.166667  0.166667  0.000000      6.000000
  0.333333  0.166667  0.000000     12.000000
  0.333333  0.333333  0.000000      2.000000
  0.000000  0.000000  0.250000      2.000000
  0.166667  0.000000  0.250000     12.000000
  0.333333  0.000000  0.250000     12.000000
  0.500000  0.000000  0.250000      6.000000
  0.166667  0.166667  0.250000     12.000000
  0.333333  0.166667  0.250000     24.000000
  0.333333  0.333333  0.250000      4.000000
  0.000000  0.000000  0.500000      1.000000
  0.166667  0.000000  0.500000      6.000000
  0.333333  0.000000  0.500000      6.000000
  0.500000  0.000000  0.500000      3.000000
  0.166667  0.166667  0.500000      6.000000
  0.333333  0.166667  0.500000     12.000000
  0.333333  0.333333  0.500000      2.000000
 
 Following cartesian coordinates:
            Coordinates               Weight
  0.000000  0.000000  0.000000      1.000000
  0.042877 -0.024755  0.000000      6.000000
  0.085753 -0.049510  0.000000      6.000000
  0.128630 -0.074264  0.000000      3.000000
  0.085753  0.000000  0.000000      6.000000
  0.128630 -0.024755  0.000000     12.000000
  0.171506  0.000000  0.000000      2.000000
  0.000000  0.000000  0.039226      2.000000
  0.042877 -0.024755  0.039226     12.000000
  0.085753 -0.049510  0.039226     12.000000
  0.128630 -0.074264  0.039226      6.000000
  0.085753  0.000000  0.039226     12.000000
  0.128630 -0.024755  0.039226     24.000000
  0.171506  0.000000  0.039226      4.000000
  0.000000  0.000000  0.078452      1.000000
  0.042877 -0.024755  0.078452      6.000000
  0.085753 -0.049510  0.078452      6.000000
  0.128630 -0.074264  0.078452      3.000000
  0.085753  0.000000  0.078452      6.000000
  0.128630 -0.024755  0.078452     12.000000
  0.171506  0.000000  0.078452      2.000000
 


--------------------------------------------------------------------------------------------------------




 Dimension of arrays:
   k-points           NKPTS =     21   k-points in BZ     NKDIM =     21   number of bands    NBANDS=     28
   number of dos      NEDOS =    301   number of ions     NIONS =      4
   non local maximal  LDIM  =      6   non local SUM 2l+1 LMDIM =     18
   total plane-waves  NPLWV =  43200
   max r-space proj   IRMAX =      1   max aug-charges    IRDMAX=  16517
   dimension x,y,z NGX =    30 NGY =   30 NGZ =   48
   dimension x,y,z NGXF=    60 NGYF=   60 NGZF=   96
   support grid    NGXF=    60 NGYF=   60 NGZF=   96
   ions per type =               2   2
   NGX,Y,Z   is equivalent  to a cutoff of  12.83, 12.83, 12.52 a.u.
   NGXF,Y,Z  is equivalent  to a cutoff of  25.66, 25.66, 25.04 a.u.

 SYSTEM =  unknown system                          
 POSCAR =  Zn S                                    

 Startparameter for this run:
   NWRITE =      2    write-flag & timer
   PREC   = accura    normal or accurate (medium, high low for compatibility)
   ISTART =      0    job   : 0-new  1-cont  2-samecut
   ICHARG =      2    charge: 1-file 2-atom 10-const
   ISPIN  =      1    spin polarized calculation?
   LNONCOLLINEAR =      F non collinear calculations
   LSORBIT =      F    spin-orbit coupling
   INIWAV =      1    electr: 0-lowe 1-rand  2-diag
   LASPH  =      F    aspherical Exc in radial PAW
 Electronic Relaxation 1
   ENCUT  =  520.0 eV  38.22 Ry    6.18 a.u.   7.23  7.23 11.85*2*pi/ulx,y,z
   ENINI  =  520.0     initial cutoff
   ENAUG  =  575.9 eV  augmentation charge cutoff
   NELM   =    120;   NELMIN=  8; NELMDL= -5     # of ELM steps 
   EDIFF  = 0.1E-05   stopping-criterion for ELM
   LREAL  =      F    real-space projection
   NLSPLINE    = F    spline interpolate recip. space projectors
   LCOMPAT=      F    compatible to vasp.4.4
   GGA_COMPAT  = T    GGA compatible to vasp.4.4-vasp.4.6
   LMAXPAW     = -100 max onsite density
   LMAXMIX     =    2 max onsite mixed and CHGCAR
   VOSKOWN=      0    Vosko Wilk Nusair interpolation
   ROPT   =    0.00000   0.00000
 Ionic relaxation
   EDIFFG = -.1E-02   stopping-criterion for IOM
   NSW    =    200    number of steps for IOM
   NBLOCK =      1;   KBLOCK =    200    inner block; outer block 
   IBRION =      1    ionic relax: 0-MD 1-quasi-New 2-CG
   NFREE  =      0    steps in history (QN), initial steepest desc. (CG)
   ISIF   =      2    stress and relaxation
   IWAVPR =     11    prediction:  0-non 1-charg 2-wave 3-comb
   ISYM   =      2    0-nonsym 1-usesym 2-fastsym
   LCORR  =      T    Harris-Foulkes like correction to forces

   POTIM  = 0.5000    time-step for ionic-motion
   TEIN   =    0.0    initial temperature
   TEBEG  =    0.0;   TEEND  =   0.0 temperature during run
   SMASS  =  -3.00    Nose mass-parameter (am)
   estimated Nose-frequenzy (Omega)   =  0.10E-29 period in steps = 0.13E+47 mass=  -0.345E-27a.u.
   SCALEE = 1.0000    scale energy and forces
   NPACO  =    256;   APACO  = 10.0  distance and # of slots for P.C.
   PSTRESS=    0.0 pullay stress

  Mass of Ions in am
   POMASS =  65.39 32.07
  Ionic Valenz
   ZVAL   =  12.00  6.00
  Atomic Wigner-Seitz radii
   RWIGS  =  -1.00 -1.00
  virtual crystal weights 
   VCA    =   1.00  1.00
   NELECT =      36.0000    total number of electrons
   NUPDOWN=      -1.0000    fix difference up-down

 DOS related values:
   EMIN   =  10.00;   EMAX   =-10.00  energy-range for DOS
   EFERMI =   0.00;   METHOD = LEGACY      
   ISMEAR =     0;   SIGMA  =   0.03  broadening in eV -4-tet -1-fermi 0-gaus

 Electronic relaxation 2 (details)
   IALGO  =     38    algorithm
   LDIAG  =      T    sub-space diagonalisation (order eigenvalues)
   LSUBROT=      F    optimize rotation matrix (better conditioning)
   TURBO    =      0    0=normal 1=particle mesh
   IRESTART =      0    0=no restart 2=restart with 2 vectors
   NREBOOT  =      0    no. of reboots
   NMIN     =      0    reboot dimension
   EREF     =   0.00    reference energy to select bands
   IMIX   =      4    mixing-type and parameters
     AMIX     =   0.40;   BMIX     =  1.00
     AMIX_MAG =   1.60;   BMIX_MAG =  1.00
     AMIN     =   0.10
     WC   =   100.;   INIMIX=   1;  MIXPRE=   1;  MAXMIX= -45

 Intra band minimization:
   WEIMIN = 0.0010     energy-eigenvalue tresh-hold
   EBREAK =  0.89E-08  absolut break condition
   DEPER  =   0.30     relativ break condition  

   TIME   =   0.40     timestep for ELM

  volume/ion in A,a.u.               =      20.85       140.70
  Fermi-wavevector in a.u.,A,eV,Ry     =   1.237249  2.338062 20.827600  1.530785
  Thomas-Fermi vector in A             =   2.371824

 Write flags
   LWAVE        =      T    write WAVECAR
   LDOWNSAMPLE  =      F    k-point downsampling of WAVECAR
   LCHARG       =      T    write CHGCAR
   LVTOT        =      F    write LOCPOT, total local potential
   LVHAR        =      F    write LOCPOT, Hartree potential only
   WRT_POTENTIAL= false  ! write potential to hdf5 file
   LELF         =      F    write electronic localiz. function (ELF)
   LORBIT       =      0    0 simple, 1 ext, 2 COOP (PROOUT), +10 PAW based schemes


 Dipole corrections
   LMONO      =      F    monopole corrections only (constant potential shift)
   LDIPOL     =      F    correct potential (dipole corrections)
   IDIPOL     =      0    1-x, 2-y, 3-z, 4-all directions 
   EPSILON    =  1.0000000 bulk dielectric constant
   LVACPOTAV  =      F  vacuum potentials using an averaging scheme for the charge density
   VACPOTFLAT =  0.1000000 required flatness to determine vacuum potential
 Exchange correlation treatment:
   GGA     = PE    functional components
   XC_C    = 1    coefficients multiplying the functional components
   LIBXC   =     F    Libxc                    
   VOSKOWN =     0    Vosko Wilk Nusair interpolation
   LHFCALC =     F    Hartree Fock is set to
   LHFONE  =     F    Hartree Fock one center treatment
   AEXX    =    0.0000 exact exchange contribution

 Parameters of functionals:
   PE:
     No parameter

 Van der Waals corrections
   IVDW    =     0    specifies the selected vdW correction

 Linear response parameters
   LEPSILON=     F    determine dielectric tensor
   LRPA    =     F    only Hartree local field effects (RPA)
   LNABLA  =     F    use nabla operator in PAW spheres
   LVEL    =     F    velocity operator in full k-point grid
   CSHIFT  =0.1000    complex shift for real part using Kramers Kronig
   OMEGAMAX=  -1.0    maximum frequency
   DEG_THRESHOLD= 0.2000000E-02 threshold for treating states as degnerate
   RTIME   =   -0.100 relaxation time in fs
  (WPLASMAI=    0.000 imaginary part of plasma frequency in eV, 0.658/RTIME)
   DFIELD  = 0.0000000 0.0000000 0.0000000 field for delta impulse in time

  Optional k-point grid parameters
   LKPOINTS_OPT  =     F    use optional k-point grid
   KPOINTS_OPT_MODE=     1    mode for optional k-point grid

 Orbital magnetization related:
   ORBITALMAG=     F  switch on orbital magnetization
   LCHIMAG   =     F  perturbation theory with respect to B field
   DQ        =  0.001000  dq finite difference perturbation B field
   LLRAUG    =     F  two centre corrections for induced B field
   LBONE     =     F  B-component reconstruction in AE one-centre
   LVGVCALC  =     T  calculate vGv susceptibility
   LVGVAPPL  =     F  apply vGv susceptibility instead of pGv for G=0

 Random number generation:
   RANDOM_GENERATOR = DEFAULT
   PCG_SEED         = not used


--------------------------------------------------------------------------------------------------------


 quasi-Newton-method for relaxation of ions
 charge density and potential will be updated during run
 non-spin polarized calculation
 Variant of blocked Davidson
 Davidson routine will perform the subspace rotation
 perform sub-space diagonalisation
    after iterative eigenvector-optimisation
 modified Broyden-mixing scheme, WC =      100.0
 initial mixing is a Kerker type mixing with AMIX =  0.4000 and BMIX =      1.0000
 Hartree-type preconditioning will be used
 using additional bands           10
 reciprocal scheme for non local part
 use partial core corrections
 calculate Harris-corrections to forces   (improved forces if not selfconsistent)
 use gradient corrections 
 use of overlap-Matrix (Vanderbilt PP)
 Gauss-broadening in eV      SIGMA  =   0.03


--------------------------------------------------------------------------------------------------------


  energy-cutoff  :      520.00
  volume of cell :       83.40
      direct lattice vectors                 reciprocal lattice vectors
     1.943565552 -3.366354284 -0.000000000     0.257259139 -0.148528633  0.000000000
     1.943565552  3.366354284  0.000000000     0.257259139  0.148528633 -0.000000000
     0.000000000  0.000000000  6.373331546     0.000000000 -0.000000000  0.156903810

  length of vectors
     3.887131105  3.887131105  6.373331546     0.297057266  0.297057266  0.156903810



 k-points in units of 2pi/SCALE and weight: Automatic kpoint scheme                 
   0.00000000 -0.00000000  0.00000000       0.007
   0.04287652 -0.02475477  0.00000000       0.042
   0.08575305 -0.04950954  0.00000000       0.042
   0.12862957 -0.07426432  0.00000000       0.021
   0.08575305 -0.00000000  0.00000000       0.042
   0.12862957 -0.02475477  0.00000000       0.083
   0.17150609 -0.00000000  0.00000000       0.014
   0.00000000 -0.00000000  0.03922595       0.014
   0.04287652 -0.02475477  0.03922595       0.083
   0.08575305 -0.04950954  0.03922595       0.083
   0.12862957 -0.07426432  0.03922595       0.042
   0.08575305 -0.00000000  0.03922595       0.083
   0.12862957 -0.02475477  0.03922595       0.167
   0.17150609 -0.00000000  0.03922595       0.028
   0.00000000 -0.00000000  0.07845190       0.007
   0.04287652 -0.02475477  0.07845190       0.042
   0.08575305 -0.04950954  0.07845190       0.042
   0.12862957 -0.07426432  0.07845190       0.021
   0.08575305 -0.00000000  0.07845190       0.042
   0.12862957 -0.02475477  0.07845190       0.083
   0.17150609 -0.00000000  0.07845190       0.014

 k-points in reciprocal lattice and weights: Automatic kpoint scheme                 
   0.00000000  0.00000000  0.00000000       0.007
   0.16666667  0.00000000  0.00000000       0.042
   0.33333333  0.00000000  0.00000000       0.042
   0.50000000  0.00000000  0.00000000       0.021
   0.16666667  0.16666667  0.00000000       0.042
   0.33333333  0.16666667  0.00000000       0.083
   0.33333333  0.33333333  0.00000000       0.014
   0.00000000  0.00000000  0.25000000       0.014
   0.16666667  0.00000000  0.25000000       0.083
   0.33333333  0.00000000  0.25000000       0.083
   0.50000000  0.00000000  0.25000000       0.042
   0.16666667  0.16666667  0.25000000       0.083
   0.33333333  0.16666667  0.25000000       0.167
   0.33333333  0.33333333  0.25000000       0.028
   0.00000000  0.00000000  0.50000000       0.007
   0.16666667  0.00000000  0.50000000       0.042
   0.33333333  0.00000000  0.50000000       0.042
   0.50000000  0.00000000  0.50000000       0.021
   0.16666667  0.16666667  0.50000000       0.042
   0.33333333  0.16666667  0.50000000       0.083
   0.33333333  0.33333333  0.50000000       0.014

 position of ions in fractional coordinates (direct lattice) 
   0.33333333  0.66666667  0.00026013
   0.66666667  0.33333333  0.50026013
   0.33333333  0.66666667  0.37473987
   0.66666667  0.33333333  0.87473987

 position of ions in cartesian coordinates  (Angst):
   1.94356555  1.12211809  0.00165792
   1.94356555 -1.12211809  3.18832369
   1.94356555  1.12211809  2.38834141
   1.94356555 -1.12211809  5.57500719



--------------------------------------------------------------------------------------------------------


 k-point     1 :   0.0000 0.0000 0.0000  plane waves:    2249
 k-point     2 :   0.1667 0.0000 0.0000  plane waves:    2227
 k-point     3 :   0.3333 0.0000 0.0000  plane waves:    2236
 k-point     4 :   0.5000 0.0000 0.0000  plane waves:    2232
 k-point     5 :   0.1667 0.1667 0.0000  plane waves:    2239
 k-point     6 :   0.3333 0.1667 0.0000  plane waves:    2253
 k-point     7 :   0.3333 0.3333 0.0000  plane waves:    2259
 k-point     8 :   0.0000 0.0000 0.2500  plane waves:    2250
 k-point     9 :   0.1667 0.0000 0.2500  plane waves:    2250
 k-point    10 :   0.3333 0.0000 0.2500  plane waves:    2249
 k-point    11 :   0.5000 0.0000 0.2500  plane waves:    2248
 k-point    12 :   0.1667 0.1667 0.2500  plane waves:    2236
 k-point    13 :   0.3333 0.1667 0.2500  plane waves:    2248
 k-point    14 :   0.3333 0.3333 0.2500  plane waves:    2253
 k-point    15 :   0.0000 0.0000 0.5000  plane waves:    2256
 k-point    16 :   0.1667 0.0000 0.5000  plane waves:    2260
 k-point    17 :   0.3333 0.0000 0.5000  plane waves:    2242
 k-point    18 :   0.5000 0.0000 0.5000  plane waves:    2256
 k-point    19 :   0.1667 0.1667 0.5000  plane waves:    2238
 k-point    20 :   0.3333 0.1667 0.5000  plane waves:    2246
 k-point    21 :   0.3333 0.3333 0.5000  plane waves:    2256

 maximum and minimum number of plane-waves per node :      2260     2227

 maximum number of plane-waves:      2260
 maximum index in each direction: 
   IXMAX=    7   IYMAX=    7   IZMAX=   11
   IXMIN=   -7   IYMIN=   -7   IZMIN=  -12


 serial   3D FFT for wavefunctions
 parallel 3D FFT for charge:
    minimum data exchange during FFTs selected (reduces bandwidth)


 total amount of memory used by VASP MPI-rank0    49997. kBytes
=======================================================================

   base      :      30000. kBytes
   nonl-proj :      13862. kBytes
   fftplans  :       1133. kBytes
   grid      :       3379. kBytes
   one-center:         62. kBytes
   wavefun   :       1561. kBytes

     INWAV:  cpu time      0.0000: real time      0.0000
 Broyden mixing: mesh for mixing (old mesh)
   NGX = 15   NGY = 15   NGZ = 23
  (NGX  = 60   NGY  = 60   NGZ  = 96)
  gives a total of   5175 points

 initial charge density was supplied:
 charge density of overlapping atoms calculated
 number of electron      36.0000000 magnetization 
 keeping initial charge density in first step


--------------------------------------------------------------------------------------------------------


 Maximum index for augmentation-charges         1144 (set IRDMAX)


--------------------------------------------------------------------------------------------------------


 First call to EWALD:  gamma=   0.406
 Maximum number of real-space cells 3x 3x 2
 Maximum number of reciprocal cells 2x 2x 4

    FEWALD:  cpu time      0.1931: real time      0.1823


--------------------------------------- Ionic step        1  -------------------------------------------




--------------------------------------- Iteration      1(   1)  ---------------------------------------


    POTLOK:  cpu time      0.1337: real time      0.1463
    SETDIJ:  cpu time      0.0066: real time      0.0066
     EDDAV:  cpu time      7.2003: real time      7.3466
       DOS:  cpu time      0.0002: real time      0.0002
    --------------------------------------------
      LOOP:  cpu time      7.3409: real time      7.4997

 eigenvalue-minimisations  :  1176
 total energy-change (2. order) : 0.1833112E+03  (-0.1780945E+04)
 number of electron      36.0000000 magnetization 
 augmentation part       36.0000000 magnetization 

 Free energy of the ion-electron system (eV)
  ---------------------------------------------------
  alpha Z        PSCENC =       135.59070914
  Ewald energy   TEWEN  =     -2458.06258307
  -Hartree energ DENC   =     -1410.04556926
  -exchange      EXHF   =         0.00000000
  -V(xc)+E(xc)   XCENC  =       138.24305481
  PAW double counting   =      3345.42656771    -3694.17617221
  entropy T*S    EENTRO =        -0.00141147
  eigenvalues    EBANDS =        75.03056106
  atomic energy  EATOM  =      4051.30602026
  Solvation  Ediel_sol  =         0.00000000
  ---------------------------------------------------
  free energy    TOTEN  =       183.31117699 eV

  energy without entropy =      183.31258845  energy(sigma->0) =      183.31188272


--------------------------------------------------------------------------------------------------------




--------------------------------------- Iteration      1(   2)  ---------------------------------------


     EDDAV:  cpu time     10.4233: real time     10.3332
       DOS:  cpu time      0.0001: real time      0.0001
    --------------------------------------------
      LOOP:  cpu time     10.4234: real time     10.3333

 eigenvalue-minimisations  :  1428
 total energy-change (2. order) :-0.1862621E+03  (-0.1801512E+03)
 number of electron      36.0000000 magnetization 
 augmentation part       36.0000000 magnetization 

 Free energy of the ion-electron system (eV)
  ---------------------------------------------------
  alpha Z        PSCENC =       135.59070914
  Ewald energy   TEWEN  =     -2458.06258307
  -Hartree energ DENC   =     -1410.04556926
  -exchange      EXHF   =         0.00000000
  -V(xc)+E(xc)   XCENC  =       138.24305481
  PAW double counting   =      3345.42656771    -3694.17617221
  entropy T*S    EENTRO =        -0.00000000
  eigenvalues    EBANDS =      -111.23294643
  atomic energy  EATOM  =      4051.30602026
  Solvation  Ediel_sol  =         0.00000000
  ---------------------------------------------------
  free energy    TOTEN  =        -2.95091904 eV

  energy without entropy =       -2.95091904  energy(sigma->0) =       -2.95091904


--------------------------------------------------------------------------------------------------------




--------------------------------------- Iteration      1(   3)  ---------------------------------------


     EDDAV:  cpu time      9.2796: real time      9.0359
       DOS:  cpu time      0.0001: real time      0.0001
    --------------------------------------------
      LOOP:  cpu time      9.2797: real time      9.0360

 eigenvalue-minimisations  :  1400
 total energy-change (2. order) :-0.1145047E+02  (-0.1142270E+02)
 number of electron      36.0000000 magnetization 
 augmentation part       36.0000000 magnetization 

 Free energy of the ion-electron system (eV)
  ---------------------------------------------------
  alpha Z        PSCENC =       135.59070914
  Ewald energy   TEWEN  =     -2458.06258307
  -Hartree energ DENC   =     -1410.04556926
  -exchange      EXHF   =         0.00000000
  -V(xc)+E(xc)   XCENC  =       138.24305481
  PAW double counting   =      3345.42656771    -3694.17617221
  entropy T*S    EENTRO =        -0.00000000
  eigenvalues    EBANDS =      -122.68341900
  atomic energy  EATOM  =      4051.30602026
  Solvation  Ediel_sol  =         0.00000000
  ---------------------------------------------------
  free energy    TOTEN  =       -14.40139161 eV

  energy without entropy =      -14.40139161  energy(sigma->0) =      -14.40139161


--------------------------------------------------------------------------------------------------------




--------------------------------------- Iteration      1(   4)  ---------------------------------------


     EDDAV:  cpu time     13.3178: real time     13.6948
       DOS:  cpu time      0.0001: real time      0.0002
    --------------------------------------------
      LOOP:  cpu time     13.3179: real time     13.6950

 eigenvalue-minimisations  :  1554
 total energy-change (2. order) :-0.1311387E+00  (-0.1311175E+00)
 number of electron      36.0000000 magnetization 
 augmentation part       36.0000000 magnetization 

 Free energy of the ion-electron system (eV)
  ---------------------------------------------------
  alpha Z        PSCENC =       135.59070914
  Ewald energy   TEWEN  =     -2458.06258307
  -Hartree energ DENC   =     -1410.04556926
  -exchange      EXHF   =         0.00000000
  -V(xc)+E(xc)   XCENC  =       138.24305481
  PAW double counting   =      3345.42656771    -3694.17617221
  entropy T*S    EENTRO =        -0.00000000
  eigenvalues    EBANDS =      -122.81455773
  atomic energy  EATOM  =      4051.30602026
  Solvation  Ediel_sol  =         0.00000000
  ---------------------------------------------------
  free energy    TOTEN  =       -14.53253034 eV

  energy without entropy =      -14.53253034  energy(sigma->0) =      -14.53253034


--------------------------------------------------------------------------------------------------------




--------------------------------------- Iteration      1(   5)  ---------------------------------------


     EDDAV:  cpu time     11.6221: real time     11.8933
       DOS:  cpu time      0.0010: real time      0.0010
    CHARGE:  cpu time      0.1390: real time      0.2030
    MIXING:  cpu time      0.0129: real time      0.0150
    --------------------------------------------
      LOOP:  cpu time     11.7749: real time     12.1123

 eigenvalue-minimisations  :  1484
 total energy-change (2. order) :-0.2140887E-02  (-0.2140871E-02)
 number of electron      36.0000026 magnetization 
 augmentation part       14.2868426 magnetization 

 Broyden mixing:
  rms(total) = 0.87966E+00    rms(broyden)= 0.87966E+00
  rms(prec ) = 0.11460E+01
  weight for this iteration     100.00

 Free energy of the ion-electron system (eV)
  ---------------------------------------------------
  alpha Z        PSCENC =       135.59070914
  Ewald energy   TEWEN  =     -2458.06258307
  -Hartree energ DENC   =     -1410.04556926
  -exchange      EXHF   =         0.00000000
  -V(xc)+E(xc)   XCENC  =       138.24305481
  PAW double counting   =      3345.42656771    -3694.17617221
  entropy T*S    EENTRO =        -0.00000000
  eigenvalues    EBANDS =      -122.81669862
  atomic energy  EATOM  =      4051.30602026
  Solvation  Ediel_sol  =         0.00000000
  ---------------------------------------------------
  free energy    TOTEN  =       -14.53467123 eV

  energy without entropy =      -14.53467123  energy(sigma->0) =      -14.53467123


--------------------------------------------------------------------------------------------------------




--------------------------------------- Iteration      1(   6)  ---------------------------------------


    POTLOK:  cpu time      0.1005: real time      0.1051
    SETDIJ:  cpu time      0.0061: real time      0.0055
     EDDAV:  cpu time     12.0668: real time     12.5412
       DOS:  cpu time      0.0001: real time      0.0001
    CHARGE:  cpu time      0.2224: real time      0.2069
    MIXING:  cpu time      0.0054: real time      0.0152
    --------------------------------------------
      LOOP:  cpu time     12.4012: real time     12.8739

 eigenvalue-minimisations  :  1582
 total energy-change (2. order) : 0.8324202E+00  (-0.1841798E+00)
 number of electron      36.0000026 magnetization 
 augmentation part       14.5030499 magnetization 

 Broyden mixing:
  rms(total) = 0.68911E+00    rms(broyden)= 0.68911E+00
  rms(prec ) = 0.73195E+00
  weight for this iteration     100.00

 eigenvalues of (default mixing * dielectric matrix)
  average eigenvalue GAMMA=   1.8942
  1.8942

 Free energy of the ion-electron system (eV)
  ---------------------------------------------------
  alpha Z        PSCENC =       135.59070914
  Ewald energy   TEWEN  =     -2458.06258307
  -Hartree energ DENC   =     -1397.52478919
  -exchange      EXHF   =         0.00000000
  -V(xc)+E(xc)   XCENC  =       138.27412856
  PAW double counting   =      3577.82442573    -3921.65709017
  entropy T*S    EENTRO =        -0.00000000
  eigenvalues    EBANDS =      -139.45307227
  atomic energy  EATOM  =      4051.30602026
  Solvation  Ediel_sol  =         0.00000000
  ---------------------------------------------------
  free energy    TOTEN  =       -13.70225101 eV

  energy without entropy =      -13.70225101  energy(sigma->0) =      -13.70225101


--------------------------------------------------------------------------------------------------------




--------------------------------------- Iteration      1(   7)  ---------------------------------------


    POTLOK:  cpu time      0.1036: real time      0.1090
    SETDIJ:  cpu time      0.0035: real time      0.0037
     EDDAV:  cpu time      6.9540: real time      7.2147
       DOS:  cpu time      0.0002: real time      0.0002
    CHARGE:  cpu time      0.2627: real time      0.2067
    MIXING:  cpu time      0.0079: real time      0.0061
    --------------------------------------------
      LOOP:  cpu time      7.3319: real time      7.5402

 eigenvalue-minimisations  :  1204
 total energy-change (2. order) : 0.2841841E-01  (-0.7159840E-01)
 number of electron      36.0000026 magnetization 
 augmentation part       14.4790898 magnetization 

 Broyden mixing:
  rms(total) = 0.33318E+00    rms(broyden)= 0.33318E+00
  rms(prec ) = 0.34540E+00
  weight for this iteration     100.00

 eigenvalues of (default mixing * dielectric matrix)
  average eigenvalue GAMMA=   1.7235
  0.9500  2.4970

 Free energy of the ion-electron system (eV)
  ---------------------------------------------------
  alpha Z        PSCENC =       135.59070914
  Ewald energy   TEWEN  =     -2458.06258307
  -Hartree energ DENC   =     -1399.79136712
  -exchange      EXHF   =         0.00000000
  -V(xc)+E(xc)   XCENC  =       138.69209709
  PAW double counting   =      3907.00030656    -4255.12137486
  entropy T*S    EENTRO =        -0.00000000
  eigenvalues    EBANDS =      -133.28764058
  atomic energy  EATOM  =      4051.30602026
  Solvation  Ediel_sol  =         0.00000000
  ---------------------------------------------------
  free energy    TOTEN  =       -13.67383260 eV

  energy without entropy =      -13.67383260  energy(sigma->0) =      -13.67383260


--------------------------------------------------------------------------------------------------------




--------------------------------------- Iteration      1(   8)  ---------------------------------------


    POTLOK:  cpu time      0.1196: real time      0.1037
    SETDIJ:  cpu time      0.0056: real time      0.0052
     EDDAV:  cpu time      9.9128: real time     10.1764
       DOS:  cpu time      0.0001: real time      0.0001
    CHARGE:  cpu time      0.2107: real time      0.1966
    MIXING:  cpu time      0.0076: real time      0.0059
    --------------------------------------------
      LOOP:  cpu time     10.2565: real time     10.4880

 eigenvalue-minimisations  :  1372
 total energy-change (2. order) : 0.7710833E-03  (-0.1464988E-02)
 number of electron      36.0000026 magnetization 
 augmentation part       14.4747472 magnetization 

 Broyden mixing:
  rms(total) = 0.67818E-01    rms(broyden)= 0.67818E-01
  rms(prec ) = 0.73744E-01
  weight for this iteration     100.00

 eigenvalues of (default mixing * dielectric matrix)
  average eigenvalue GAMMA=   1.5500
  2.4198  1.0210  1.2094

 Free energy of the ion-electron system (eV)
  ---------------------------------------------------
  alpha Z        PSCENC =       135.59070914
  Ewald energy   TEWEN  =     -2458.06258307
  -Hartree energ DENC   =     -1398.34027682
  -exchange      EXHF   =         0.00000000
  -V(xc)+E(xc)   XCENC  =       138.71598417
  PAW double counting   =      4164.65024680    -4514.00052622
  entropy T*S    EENTRO =        -0.00000000
  eigenvalues    EBANDS =      -133.53263577
  atomic energy  EATOM  =      4051.30602026
  Solvation  Ediel_sol  =         0.00000000
  ---------------------------------------------------
  free energy    TOTEN  =       -13.67306151 eV

  energy without entropy =      -13.67306151  energy(sigma->0) =      -13.67306151


--------------------------------------------------------------------------------------------------------




--------------------------------------- Iteration      1(   9)  ---------------------------------------


    POTLOK:  cpu time      0.0852: real time      0.1014
    SETDIJ:  cpu time      0.0024: real time      0.0041
     EDDAV:  cpu time     10.4097: real time     10.5001
       DOS:  cpu time      0.0002: real time      0.0002
    CHARGE:  cpu time      0.1749: real time      0.2053
    MIXING:  cpu time      0.0087: real time      0.0073
    --------------------------------------------
      LOOP:  cpu time     10.6810: real time     10.8183

 eigenvalue-minimisations  :  1470
 total energy-change (2. order) :-0.4221142E-03  (-0.2348542E-03)
 number of electron      36.0000026 magnetization 
 augmentation part       14.4767694 magnetization 

 Broyden mixing:
  rms(total) = 0.13685E-01    rms(broyden)= 0.13685E-01
  rms(prec ) = 0.15593E-01
  weight for this iteration     100.00

 eigenvalues of (default mixing * dielectric matrix)
  average eigenvalue GAMMA=   1.5677
  1.0525  1.2238  1.9972  1.9972

 Free energy of the ion-electron system (eV)
  ---------------------------------------------------
  alpha Z        PSCENC =       135.59070914
  Ewald energy   TEWEN  =     -2458.06258307
  -Hartree energ DENC   =     -1397.66795711
  -exchange      EXHF   =         0.00000000
  -V(xc)+E(xc)   XCENC  =       138.70450601
  PAW double counting   =      4231.87115455    -4581.31729250
  entropy T*S    EENTRO =        -0.00000000
  eigenvalues    EBANDS =      -134.09804089
  atomic energy  EATOM  =      4051.30602026
  Solvation  Ediel_sol  =         0.00000000
  ---------------------------------------------------
  free energy    TOTEN  =       -13.67348363 eV

  energy without entropy =      -13.67348363  energy(sigma->0) =      -13.67348363


--------------------------------------------------------------------------------------------------------




--------------------------------------- Iteration      1(  10)  ---------------------------------------


    POTLOK:  cpu time      0.1145: real time      0.0980
    SETDIJ:  cpu time      0.0064: real time      0.0058
     EDDAV:  cpu time      9.7594: real time      9.9292
       DOS:  cpu time      0.0008: real time      0.0008
    CHARGE:  cpu time      0.1944: real time      0.2003
    MIXING:  cpu time      0.0097: real time      0.0083
    --------------------------------------------
      LOOP:  cpu time     10.0852: real time     10.2424

 eigenvalue-minimisations  :  1344
 total energy-change (2. order) :-0.2904325E-03  (-0.2970856E-04)
 number of electron      36.0000026 magnetization 
 augmentation part       14.4770589 magnetization 

 Broyden mixing:
  rms(total) = 0.59148E-02    rms(broyden)= 0.59148E-02
  rms(prec ) = 0.74405E-02
  weight for this iteration     100.00

 eigenvalues of (default mixing * dielectric matrix)
  average eigenvalue GAMMA=   1.7433
  2.9408  2.5834  1.2130  0.9345  1.0447

 Free energy of the ion-electron system (eV)
  ---------------------------------------------------
  alpha Z        PSCENC =       135.59070914
  Ewald energy   TEWEN  =     -2458.06258307
  -Hartree energ DENC   =     -1397.81311168
  -exchange      EXHF   =         0.00000000
  -V(xc)+E(xc)   XCENC  =       138.70704411
  PAW double counting   =      4212.73676843    -4562.14246919
  entropy T*S    EENTRO =        -0.00000000
  eigenvalues    EBANDS =      -133.99615205
  atomic energy  EATOM  =      4051.30602026
  Solvation  Ediel_sol  =         0.00000000
  ---------------------------------------------------
  free energy    TOTEN  =       -13.67377406 eV

  energy without entropy =      -13.67377406  energy(sigma->0) =      -13.67377406


--------------------------------------------------------------------------------------------------------




--------------------------------------- Iteration      1(  11)  ---------------------------------------


    POTLOK:  cpu time      0.0896: real time      0.1018
    SETDIJ:  cpu time      0.0086: real time      0.0069
     EDDAV:  cpu time      8.8997: real time      8.8024
       DOS:  cpu time      0.0001: real time      0.0001
    CHARGE:  cpu time      0.2418: real time      0.2106
    MIXING:  cpu time      0.0070: real time      0.0065
    --------------------------------------------
      LOOP:  cpu time      9.2468: real time      9.1283

 eigenvalue-minimisations  :  1330
 total energy-change (2. order) :-0.9143741E-04  (-0.1142154E-04)
 number of electron      36.0000026 magnetization 
 augmentation part       14.4770809 magnetization 

 Broyden mixing:
  rms(total) = 0.13257E-02    rms(broyden)= 0.13257E-02
  rms(prec ) = 0.15057E-02
  weight for this iteration     100.00

 eigenvalues of (default mixing * dielectric matrix)
  average eigenvalue GAMMA=   1.6837
  2.8214  2.0748  2.0748  0.9219  1.0403  1.1688

 Free energy of the ion-electron system (eV)
  ---------------------------------------------------
  alpha Z        PSCENC =       135.59070914
  Ewald energy   TEWEN  =     -2458.06258307
  -Hartree energ DENC   =     -1397.87726489
  -exchange      EXHF   =         0.00000000
  -V(xc)+E(xc)   XCENC  =       138.71341217
  PAW double counting   =      4214.16114543    -4563.59976840
  entropy T*S    EENTRO =        -0.00000000
  eigenvalues    EBANDS =      -133.90553613
  atomic energy  EATOM  =      4051.30602026
  Solvation  Ediel_sol  =         0.00000000
  ---------------------------------------------------
  free energy    TOTEN  =       -13.67386550 eV

  energy without entropy =      -13.67386550  energy(sigma->0) =      -13.67386550


--------------------------------------------------------------------------------------------------------




--------------------------------------- Iteration      1(  12)  ---------------------------------------


    POTLOK:  cpu time      0.1200: real time      0.1218
    SETDIJ:  cpu time      0.0140: real time      0.0142
     EDDAV:  cpu time     14.3394: real time     14.0868
       DOS:  cpu time      0.0001: real time      0.0001
    --------------------------------------------
      LOOP:  cpu time     14.4735: real time     14.2230

 eigenvalue-minimisations  :  1554
 total energy-change (2. order) :-0.6246923E-06  (-0.7126123E-06)
 number of electron      36.0000026 magnetization 
 augmentation part       14.4770809 magnetization 

 Free energy of the ion-electron system (eV)
  ---------------------------------------------------
  alpha Z        PSCENC =       135.59070914
  Ewald energy   TEWEN  =     -2458.06258307
  -Hartree energ DENC   =     -1397.89170412
  -exchange      EXHF   =         0.00000000
  -V(xc)+E(xc)   XCENC  =       138.71503903
  PAW double counting   =      4216.47084158    -4565.91998548
  entropy T*S    EENTRO =        -0.00000000
  eigenvalues    EBANDS =      -133.88220346
  atomic energy  EATOM  =      4051.30602026
  Solvation  Ediel_sol  =         0.00000000
  ---------------------------------------------------
  free energy    TOTEN  =       -13.67386612 eV

  energy without entropy =      -13.67386612  energy(sigma->0) =      -13.67386612


--------------------------------------------------------------------------------------------------------




 average (electrostatic) potential at core
  the test charge radii are     0.9521  0.9698
  (the norm of the test charge is              1.0000)
       1 -36.6353       2 -36.6353       3 -88.9494       4 -88.9494



 E-fermi :   1.8017     XC(G=0):  -9.3662     alpha+bet : -7.6231

 val. band max:        1.6277853482   @ k =   0.0000   0.0000   0.0000
 cond. band min:       3.5637303597   @ k =   0.0000   0.0000   0.0000
 fundamental gap:      1.9359450115
 Fermi energy:         1.8017196435

 k-point     1 :       0.0000    0.0000    0.0000
  band No.  band energies     occupation 
      1     -11.1672      2.00000
      2     -10.3342      2.00000
      3      -4.5158      2.00000
      4      -4.5044      2.00000
      5      -4.5044      2.00000
      6      -4.4313      2.00000
      7      -4.4313      2.00000
      8      -4.1202      2.00000
      9      -4.1202      2.00000
     10      -4.0539      2.00000
     11      -4.0539      2.00000
     12      -3.9070      2.00000
     13      -3.3361      2.00000
     14       0.8166      2.00000
     15       0.8166      2.00000
     16       1.5572      2.00000
     17       1.6278      2.00000
     18       1.6278      2.00000
     19       3.5637      0.00000
     20       4.6192      0.00000
     21       7.9699      0.00000
     22       7.9699      0.00000
     23       8.2299      0.00000
     24       9.2828      0.00000
     25       9.2828      0.00000
     26      10.5898      0.00000
     27      11.6564      0.00000
     28      11.6564      0.00000

 k-point     2 :       0.1667    0.0000    0.0000
  band No.  band energies     occupation 
      1     -11.0027      2.00000
      2     -10.2463      2.00000
      3      -4.5097      2.00000
      4      -4.4824      2.00000
      5      -4.4742      2.00000
      6      -4.4070      2.00000
      7      -4.3860      2.00000
      8      -4.1395      2.00000
      9      -4.1192      2.00000
     10      -4.1046      2.00000
     11      -4.0473      2.00000
     12      -3.8666      2.00000
     13      -3.1052      2.00000
     14      -0.3192      2.00000
     15       0.3441      2.00000
     16       0.4593      2.00000
     17       1.3358      2.00000
     18       1.4240      2.00000
     19       4.7034      0.00000
     20       5.5531      0.00000
     21       7.4284      0.00000
     22       8.3980      0.00000
     23       8.4337      0.00000
     24       9.1750      0.00000
     25       9.8335      0.00000
     26      10.0332      0.00000
     27      10.6579      0.00000
     28      11.3973      0.00000

 k-point     3 :       0.3333    0.0000    0.0000
  band No.  band energies     occupation 
      1     -10.6112      2.00000
      2     -10.0902      2.00000
      3      -4.4884      2.00000
      4      -4.4273      2.00000
      5      -4.4191      2.00000
      6      -4.2921      2.00000
      7      -4.2908      2.00000
      8      -4.1859      2.00000
      9      -4.1180      2.00000
     10      -4.0930      2.00000
     11      -4.0332      2.00000
     12      -3.7928      2.00000
     13      -2.7867      2.00000
     14      -1.6693      2.00000
     15      -1.2082      2.00000
     16      -0.1370      2.00000
     17       0.6742      2.00000
     18       1.0192      2.00000
     19       5.5182      0.00000
     20       5.6070      0.00000
     21       7.2332      0.00000
     22       8.2434      0.00000
     23       8.6525      0.00000
     24      10.0340      0.00000
     25      10.1687      0.00000
     26      11.0759      0.00000
     27      11.7954      0.00000
     28      12.6005      0.00000

 k-point     4 :       0.5000    0.0000    0.0000
  band No.  band energies     occupation 
      1     -10.3445      2.00000
      2     -10.0577      2.00000
      3      -4.4794      2.00000
      4      -4.4123      2.00000
      5      -4.2855      2.00000
      6      -4.2804      2.00000
      7      -4.2434      2.00000
      8      -4.1823      2.00000
      9      -4.0643      2.00000
     10      -4.0232      2.00000
     11      -3.9346      2.00000
     12      -3.9186      2.00000
     13      -2.9438      2.00000
     14      -2.2623      2.00000
     15      -1.3711      2.00000
     16      -0.4027      2.00000
     17       0.1077      2.00000
     18       0.8255      2.00000
     19       5.3272      0.00000
     20       5.7140      0.00000
     21       6.7875      0.00000
     22       8.5652      0.00000
     23       8.7771      0.00000
     24       9.9427      0.00000
     25      10.5281      0.00000
     26      12.8580      0.00000
     27      13.2238      0.00000
     28      13.8352      0.00000

 k-point     5 :       0.1667    0.1667    0.0000
  band No.  band energies     occupation 
      1     -10.7215      2.00000
      2     -10.1240      2.00000
      3      -4.4628      2.00000
      4      -4.4593      2.00000
      5      -4.4315      2.00000
      6      -4.3594      2.00000
      7      -4.3049      2.00000
      8      -4.1553      2.00000
      9      -4.1291      2.00000
     10      -4.1163      2.00000
     11      -4.0364      2.00000
     12      -3.8141      2.00000
     13      -2.8005      2.00000
     14      -1.1606      2.00000
     15      -0.9609      2.00000
     16      -0.2077      2.00000
     17       0.8574      2.00000
     18       0.9190      2.00000
     19       5.7312      0.00000
     20       6.4738      0.00000
     21       7.2957      0.00000
     22       7.5274      0.00000
     23       8.8351      0.00000
     24       9.1307      0.00000
     25      10.1836      0.00000
     26      10.3669      0.00000
     27      11.7372      0.00000
     28      11.7696      0.00000

 k-point     6 :       0.3333    0.1667    0.0000
  band No.  band energies     occupation 
      1     -10.3559      2.00000
      2     -10.0519      2.00000
      3      -4.4690      2.00000
      4      -4.3979      2.00000
      5      -4.3007      2.00000
      6      -4.2606      2.00000
      7      -4.2149      2.00000
      8      -4.1768      2.00000
      9      -4.1117      2.00000
     10      -4.0918      2.00000
     11      -3.9991      2.00000
     12      -3.7660      2.00000
     13      -2.8132      2.00000
     14      -2.0423      2.00000
     15      -1.3397      2.00000
     16      -0.9099      2.00000
     17       0.1866      2.00000
     18       0.3119      2.00000
     19       6.3204      0.00000
     20       6.5102      0.00000
     21       6.6357      0.00000
     22       8.5416      0.00000
     23       8.6380      0.00000
     24      10.0459      0.00000
     25      10.7062      0.00000
     26      10.9636      0.00000
     27      12.4868      0.00000
     28      12.9696      0.00000

 k-point     7 :       0.3333    0.3333    0.0000
  band No.  band energies     occupation 
      1     -10.1291      2.00000
      2     -10.1291      2.00000
      3      -4.4803      2.00000
      4      -4.3142      2.00000
      5      -4.3142      2.00000
      6      -4.2178      2.00000
      7      -4.1484      2.00000
      8      -4.1484      2.00000
      9      -4.1102      2.00000
     10      -4.0876      2.00000
     11      -3.8644      2.00000
     12      -3.8644      2.00000
     13      -2.4494      2.00000
     14      -2.4494      2.00000
     15      -1.8750      2.00000
     16      -0.4865      2.00000
     17      -0.4865      2.00000
     18      -0.2697      2.00000
     19       6.0693      0.00000
     20       7.2477      0.00000
     21       7.2477      0.00000
     22       9.3935      0.00000
     23       9.5563      0.00000
     24       9.5563      0.00000
     25      10.8361      0.00000
     26      10.8361      0.00000
     27      11.7643      0.00000
     28      12.8304      0.00000

 k-point     8 :       0.0000    0.0000    0.2500
  band No.  band energies     occupation 
      1     -11.0603      2.00000
      2     -10.4742      2.00000
      3      -4.5167      2.00000
      4      -4.4969      2.00000
      5      -4.4969      2.00000
      6      -4.4453      2.00000
      7      -4.4453      2.00000
      8      -4.2624      2.00000
      9      -4.1081      2.00000
     10      -4.1081      2.00000
     11      -4.0611      2.00000
     12      -4.0611      2.00000
     13      -2.5216      2.00000
     14       0.4891      2.00000
     15       0.9271      2.00000
     16       0.9271      2.00000
     17       1.4996      2.00000
     18       1.4996      2.00000
     19       4.4618      0.00000
     20       4.7609      0.00000
     21       7.8999      0.00000
     22       8.0653      0.00000
     23       8.0653      0.00000
     24       8.9578      0.00000
     25       8.9578      0.00000
     26       9.7465      0.00000
     27      12.2027      0.00000
     28      12.2027      0.00000

 k-point     9 :       0.1667    0.0000    0.2500
  band No.  band energies     occupation 
      1     -10.9036      2.00000
      2     -10.3704      2.00000
      3      -4.5169      2.00000
      4      -4.4735      2.00000
      5      -4.4639      2.00000
      6      -4.4226      2.00000
      7      -4.4017      2.00000
      8      -4.2606      2.00000
      9      -4.1182      2.00000
     10      -4.1074      2.00000
     11      -4.0565      2.00000
     12      -4.0262      2.00000
     13      -2.4114      2.00000
     14      -0.2440      2.00000
     15      -0.0531      2.00000
     16       0.5870      2.00000
     17       1.0493      2.00000
     18       1.2659      2.00000
     19       5.1775      0.00000
     20       5.6935      0.00000
     21       7.4053      0.00000
     22       7.9717      0.00000
     23       8.5694      0.00000
     24       8.6104      0.00000
     25       9.6807      0.00000
     26       9.8430      0.00000
     27      11.2857      0.00000
     28      11.9051      0.00000

 k-point    10 :       0.3333    0.0000    0.2500
  band No.  band energies     occupation 
      1     -10.5377      2.00000
      2     -10.1689      2.00000
      3      -4.4984      2.00000
      4      -4.4345      2.00000
      5      -4.4086      2.00000
      6      -4.3117      2.00000
      7      -4.3020      2.00000
      8      -4.2433      2.00000
      9      -4.1026      2.00000
     10      -4.0860      2.00000
     11      -4.0444      2.00000
     12      -3.9230      2.00000
     13      -2.6024      2.00000
     14      -1.7117      2.00000
     15      -0.9688      2.00000
     16       0.0137      2.00000
     17       0.6870      2.00000
     18       0.8248      2.00000
     19       5.1639      0.00000
     20       5.7845      0.00000
     21       7.3517      0.00000
     22       7.6783      0.00000
     23       9.0627      0.00000
     24       9.7022      0.00000
     25      10.2029      0.00000
     26      11.2326      0.00000
     27      11.4085      0.00000
     28      12.8391      0.00000

 k-point    11 :       0.5000    0.0000    0.2500
  band No.  band energies     occupation 
      1     -10.2991      2.00000
      2     -10.0956      2.00000
      3      -4.4905      2.00000
      4      -4.3885      2.00000
      5      -4.3796      2.00000
      6      -4.2678      2.00000
      7      -4.2638      2.00000
      8      -4.1734      2.00000
      9      -4.0615      2.00000
     10      -4.0343      2.00000
     11      -3.9248      2.00000
     12      -3.8932      2.00000
     13      -3.0728      2.00000
     14      -2.5528      2.00000
     15      -0.7912      2.00000
     16      -0.2424      2.00000
     17       0.3538      2.00000
     18       0.6184      2.00000
     19       5.0642      0.00000
     20       5.4331      0.00000
     21       7.2936      0.00000
     22       7.5070      0.00000
     23       9.0561      0.00000
     24       9.6434      0.00000
     25      11.1073      0.00000
     26      12.0456      0.00000
     27      13.1830      0.00000
     28      14.3727      0.00000

 k-point    12 :       0.1667    0.1667    0.2500
  band No.  band energies     occupation 
      1     -10.6393      2.00000
      2     -10.2169      2.00000
      3      -4.4785      2.00000
      4      -4.4491      2.00000
      5      -4.4205      2.00000
      6      -4.3717      2.00000
      7      -4.3247      2.00000
      8      -4.2497      2.00000
      9      -4.1265      2.00000
     10      -4.0941      2.00000
     11      -4.0456      2.00000
     12      -3.9553      2.00000
     13      -2.4125      2.00000
     14      -1.2346      2.00000
     15      -0.7890      2.00000
     16      -0.1473      2.00000
     17       0.6538      2.00000
     18       0.8612      2.00000
     19       5.6716      0.00000
     20       6.4998      0.00000
     21       7.4289      0.00000
     22       7.5590      0.00000
     23       8.5199      0.00000
     24       8.9130      0.00000
     25       9.8688      0.00000
     26      10.5813      0.00000
     27      11.7519      0.00000
     28      12.1191      0.00000

 k-point    13 :       0.3333    0.1667    0.2500
  band No.  band energies     occupation 
      1     -10.3084      2.00000
      2     -10.0927      2.00000
      3      -4.4569      2.00000
      4      -4.4041      2.00000
      5      -4.3429      2.00000
      6      -4.2768      2.00000
      7      -4.2392      2.00000
      8      -4.2101      2.00000
      9      -4.0938      2.00000
     10      -4.0796      2.00000
     11      -3.9849      2.00000
     12      -3.8133      2.00000
     13      -2.8723      2.00000
     14      -2.2999      2.00000
     15      -1.0128      2.00000
     16      -0.5332      2.00000
     17       0.0456      2.00000
     18       0.4583      2.00000
     19       5.7415      0.00000
     20       6.4647      0.00000
     21       7.2720      0.00000
     22       7.7290      0.00000
     23       8.5382      0.00000
     24       9.8277      0.00000
     25      10.5519      0.00000
     26      11.2538      0.00000
     27      12.2058      0.00000
     28      13.3154      0.00000

 k-point    14 :       0.3333    0.3333    0.2500
  band No.  band energies     occupation 
      1     -10.1228      2.00000
      2     -10.1228      2.00000
      3      -4.4465      2.00000
      4      -4.3472      2.00000
      5      -4.3472      2.00000
      6      -4.2546      2.00000
      7      -4.1610      2.00000
      8      -4.1610      2.00000
      9      -4.1129      2.00000
     10      -4.1073      2.00000
     11      -3.8294      2.00000
     12      -3.8294      2.00000
     13      -2.6724      2.00000
     14      -2.6724      2.00000
     15      -1.6674      2.00000
     16      -0.5545      2.00000
     17      -0.0348      2.00000
     18      -0.0348      2.00000
     19       6.6429      0.00000
     20       6.6553      0.00000
     21       6.6553      0.00000
     22       8.9728      0.00000
     23       8.9728      0.00000
     24       9.1368      0.00000
     25      11.5666      0.00000
     26      11.6110      0.00000
     27      11.6110      0.00000
     28      11.9607      0.00000

 k-point    15 :       0.0000    0.0000    0.5000
  band No.  band energies     occupation 
      1     -10.7836      2.00000
      2     -10.7836      2.00000
      3      -4.4743      2.00000
      4      -4.4743      2.00000
      5      -4.4743      2.00000
      6      -4.4743      2.00000
      7      -4.4731      2.00000
      8      -4.4731      2.00000
      9      -4.0822      2.00000
     10      -4.0822      2.00000
     11      -4.0822      2.00000
     12      -4.0822      2.00000
     13      -1.1080      2.00000
     14      -1.1080      2.00000
     15       1.2045      2.00000
     16       1.2045      2.00000
     17       1.2045      2.00000
     18       1.2045      2.00000
     19       5.0031      0.00000
     20       5.0031      0.00000
     21       8.3078      0.00000
     22       8.3078      0.00000
     23       8.4115      0.00000
     24       8.4115      0.00000
     25       8.4115      0.00000
     26       8.4115      0.00000
     27      13.5012      0.00000
     28      13.5045      0.00000

 k-point    16 :       0.1667    0.0000    0.5000
  band No.  band energies     occupation 
      1     -10.6494      2.00000
      2     -10.6494      2.00000
      3      -4.4926      2.00000
      4      -4.4926      2.00000
      5      -4.4355      2.00000
      6      -4.4355      2.00000
      7      -4.4234      2.00000
      8      -4.4234      2.00000
      9      -4.0807      2.00000
     10      -4.0807      2.00000
     11      -4.0785      2.00000
     12      -4.0785      2.00000
     13      -1.2466      2.00000
     14      -1.2466      2.00000
     15       0.3985      2.00000
     16       0.3985      2.00000
     17       0.9116      2.00000
     18       0.9116      2.00000
     19       5.8290      0.00000
     20       5.8290      0.00000
     21       7.3387      0.00000
     22       7.3387      0.00000
     23       8.9116      0.00000
     24       8.9116      0.00000
     25       9.0481      0.00000
     26       9.0481      0.00000
     27      12.7887      0.00000
     28      12.7887      0.00000

 k-point    17 :       0.3333    0.0000    0.5000
  band No.  band energies     occupation 
      1     -10.3559      2.00000
      2     -10.3559      2.00000
      3      -4.4850      2.00000
      4      -4.4850      2.00000
      5      -4.3613      2.00000
      6      -4.3613      2.00000
      7      -4.3093      2.00000
      8      -4.3093      2.00000
      9      -4.0672      2.00000
     10      -4.0672      2.00000
     11      -4.0379      2.00000
     12      -4.0379      2.00000
     13      -2.2037      2.00000
     14      -2.2037      2.00000
     15       0.0470      2.00000
     16       0.0470      2.00000
     17       0.3983      2.00000
     18       0.3983      2.00000
     19       5.4889      0.00000
     20       5.4889      0.00000
     21       7.1842      0.00000
     22       7.1842      0.00000
     23       9.8890      0.00000
     24       9.8890      0.00000
     25      10.0820      0.00000
     26      10.0820      0.00000
     27      12.5634      0.00000
     28      12.5634      0.00000

 k-point    18 :       0.5000    0.0000    0.5000
  band No.  band energies     occupation 
      1     -10.1937      2.00000
      2     -10.1937      2.00000
      3      -4.4770      2.00000
      4      -4.4770      2.00000
      5      -4.3287      2.00000
      6      -4.3287      2.00000
      7      -4.2170      2.00000
      8      -4.2170      2.00000
      9      -4.0517      2.00000
     10      -4.0517      2.00000
     11      -3.8996      2.00000
     12      -3.8996      2.00000
     13      -2.9605      2.00000
     14      -2.9605      2.00000
     15       0.1370      2.00000
     16       0.1370      2.00000
     17       0.1656      2.00000
     18       0.1656      2.00000
     19       5.1469      0.00000
     20       5.1469      0.00000
     21       6.8831      0.00000
     22       6.8831      0.00000
     23      10.3444      0.00000
     24      10.3444      0.00000
     25      10.5784      0.00000
     26      10.5784      0.00000
     27      13.5990      0.00000
     28      13.5990      0.00000

 k-point    19 :       0.1667    0.1667    0.5000
  band No.  band energies     occupation 
      1     -10.4336      2.00000
      2     -10.4336      2.00000
      3      -4.4658      2.00000
      4      -4.4658      2.00000
      5      -4.3931      2.00000
      6      -4.3931      2.00000
      7      -4.3580      2.00000
      8      -4.3580      2.00000
      9      -4.0801      2.00000
     10      -4.0801      2.00000
     11      -4.0476      2.00000
     12      -4.0476      2.00000
     13      -1.8135      2.00000
     14      -1.8135      2.00000
     15       0.0740      2.00000
     16       0.0740      2.00000
     17       0.2817      2.00000
     18       0.2817      2.00000
     19       6.1783      0.00000
     20       6.1783      0.00000
     21       7.3591      0.00000
     22       7.3591      0.00000
     23       8.6705      0.00000
     24       8.6705      0.00000
     25       9.9254      0.00000
     26       9.9254      0.00000
     27      12.6403      0.00000
     28      12.6403      0.00000

 k-point    20 :       0.3333    0.1667    0.5000
  band No.  band energies     occupation 
      1     -10.1973      2.00000
      2     -10.1973      2.00000
      3      -4.4368      2.00000
      4      -4.4368      2.00000
      5      -4.3365      2.00000
      6      -4.3365      2.00000
      7      -4.2443      2.00000
      8      -4.2443      2.00000
      9      -4.0774      2.00000
     10      -4.0774      2.00000
     11      -3.9162      2.00000
     12      -3.9162      2.00000
     13      -2.7002      2.00000
     14      -2.7002      2.00000
     15      -0.4998      2.00000
     16      -0.4998      2.00000
     17       0.3010      2.00000
     18       0.3010      2.00000
     19       5.7894      0.00000
     20       5.7894      0.00000
     21       7.5034      0.00000
     22       7.5034      0.00000
     23       9.0751      0.00000
     24       9.0751      0.00000
     25      10.5651      0.00000
     26      10.5651      0.00000
     27      13.0704      0.00000
     28      13.0704      0.00000

 k-point    21 :       0.3333    0.3333    0.5000
  band No.  band energies     occupation 
      1     -10.1165      2.00000
      2     -10.1165      2.00000
      3      -4.3818      2.00000
      4      -4.3818      2.00000
      5      -4.3557      2.00000
      6      -4.3557      2.00000
      7      -4.1698      2.00000
      8      -4.1698      2.00000
      9      -4.1169      2.00000
     10      -4.1169      2.00000
     11      -3.7950      2.00000
     12      -3.7950      2.00000
     13      -2.8447      2.00000
     14      -2.8447      2.00000
     15      -1.1465      2.00000
     16      -1.1465      2.00000
     17       0.4024      2.00000
     18       0.4024      2.00000
     19       6.0331      0.00000
     20       6.0331      0.00000
     21       7.9921      0.00000
     22       7.9921      0.00000
     23       8.8142      0.00000
     24       8.8142      0.00000
     25      11.3353      0.00000
     26      11.3353      0.00000
     27      11.6866      0.00000
     28      11.6866      0.00000


--------------------------------------------------------------------------------------------------------


 soft charge-density along one line, spin component           1
         0         1         2         3         4         5         6         7         8         9
 total charge-density along one line

 pseudopotential strength for first ion, spin component:           1
-10.077  -0.000   0.000  -0.000  -0.000 -10.426  -0.000   0.000
 -0.000 -10.077   0.000  -0.000  -0.000  -0.000 -10.426   0.000
  0.000   0.000 -10.076  -0.000   0.000   0.000   0.000 -10.425
 -0.000  -0.000  -0.000 -10.077  -0.000  -0.000  -0.000  -0.000
 -0.000  -0.000   0.000  -0.000 -10.077  -0.000  -0.000   0.000
-10.426  -0.000   0.000  -0.000  -0.000 -10.701  -0.000   0.000
 -0.000 -10.426   0.000  -0.000  -0.000  -0.000 -10.701   0.000
  0.000   0.000 -10.425  -0.000   0.000   0.000   0.000 -10.700
 -0.000  -0.000  -0.000 -10.426  -0.000  -0.000  -0.000  -0.000
 -0.000  -0.000   0.000  -0.000 -10.426  -0.000  -0.000   0.000
 -0.000  -0.000  -0.000  -0.000  -0.000  -0.000  -0.000  -0.000
 -0.000  -0.000  -0.000  -0.000  -0.000  -0.000  -0.000  -0.000
 -0.000   0.002  -0.000   0.000  -0.002  -0.000   0.001  -0.000
  0.000   0.000  -0.002  -0.000   0.000   0.000   0.000  -0.001
 -0.002   0.000   0.000   0.002   0.000  -0.001   0.000   0.000
 -0.000   0.002  -0.000   0.000  -0.002  -0.000   0.001  -0.000
  0.000   0.000  -0.002   0.000   0.000   0.000   0.000  -0.001
 -0.002   0.000   0.000   0.002   0.000  -0.001   0.000   0.000
 total augmentation occupancy for first ion, spin component:           1
  3.403   0.000   0.000  -0.615   0.000  -1.378   0.000  -0.000   0.609  -0.000  -0.000   0.000   0.000  -0.000  -0.503  -0.000
  0.000   2.968  -0.000  -0.000  -0.615  -0.000  -0.948   0.000   0.000   0.609  -0.000   0.000   0.359   0.000  -0.000  -0.052
  0.000   0.000   3.831  -0.000  -0.000  -0.000   0.000  -1.799   0.000   0.000   0.007  -0.000  -0.000  -0.610  -0.000   0.000
 -0.615  -0.000  -0.000   2.968   0.000   0.609   0.000   0.000  -0.948   0.000   0.000   0.000  -0.000   0.000   0.359   0.000
  0.000  -0.615  -0.000   0.000   3.403  -0.000   0.609   0.000  -0.000  -1.378   0.000  -0.000  -0.503   0.000  -0.000   0.073
 -1.378  -0.000  -0.000   0.609  -0.000   1.347   0.000   0.000  -0.602   0.000   0.000  -0.000  -0.000   0.000   0.486   0.000
 -0.000  -0.948   0.000   0.000   0.609   0.000   0.922  -0.000  -0.000  -0.602   0.000  -0.000  -0.346   0.000   0.000   0.058
 -0.000   0.000  -1.799   0.000  -0.000   0.000  -0.000   1.760  -0.000   0.000  -0.008   0.001   0.000   0.590   0.000  -0.000
  0.609   0.000   0.000  -0.948   0.000  -0.602  -0.000  -0.000   0.922  -0.000   0.000   0.000   0.000   0.000  -0.346  -0.000
  0.000   0.609   0.000  -0.000  -1.378  -0.000  -0.602  -0.000   0.000   1.347  -0.000   0.000   0.486  -0.000  -0.000  -0.082
 -0.000  -0.000   0.007   0.000   0.000   0.000   0.000  -0.008   0.000  -0.000   2.330  -0.520  -0.000  -0.002   0.000   0.000
  0.000   0.000  -0.000   0.000  -0.000  -0.000  -0.000   0.001   0.000   0.000  -0.520   0.140  -0.000   0.001  -0.000   0.000
  0.000   0.359  -0.000  -0.000  -0.503  -0.000  -0.346   0.000   0.000   0.486  -0.000  -0.000   0.325  -0.000  -0.000  -0.055
 -0.000   0.000  -0.610  -0.000   0.000   0.000   0.000   0.590   0.000  -0.000  -0.002   0.001   0.000   0.323  -0.000  -0.000
 -0.503  -0.000  -0.000   0.359   0.000   0.486   0.000   0.000  -0.346  -0.000   0.000  -0.000  -0.000   0.000   0.325   0.000
 -0.000  -0.052   0.000   0.000   0.073   0.000   0.058  -0.000  -0.000  -0.082   0.000   0.000  -0.055  -0.000   0.000   0.011
  0.000   0.000   0.088   0.000  -0.000  -0.000  -0.000  -0.099  -0.000   0.000   0.001  -0.000  -0.000  -0.055   0.000   0.000
  0.073   0.000   0.000  -0.052  -0.000  -0.082  -0.000  -0.000   0.058   0.000  -0.000   0.000   0.000   0.000  -0.055  -0.000


------------------------ aborting loop because EDIFF is reached ----------------------------------------


    CHARGE:  cpu time      0.2483: real time      0.2270
    FORLOC:  cpu time      0.0026: real time      0.0034
    FORNL :  cpu time      0.0495: real time      0.0501
    STRESS:  cpu time      0.6162: real time      0.6367
    FORCOR:  cpu time      0.1317: real time      0.1265
    FORHAR:  cpu time      0.0363: real time      0.0354
    MIXING:  cpu time      0.0071: real time      0.0056
    OFIELD:  cpu time      0.0000: real time      0.0000

  FORCE on cell =-STRESS in cart. coord.  units (eV):
  Direction    XX          YY          ZZ          XY          YZ          ZX
  --------------------------------------------------------------------------------------
[...]
     23       8.5177      0.00000
     24       8.9137      0.00000
     25       9.8677      0.00000
     26      10.5835      0.00000
     27      11.7527      0.00000
     28      12.1183      0.00000

 k-point    13 :       0.3333    0.1667    0.2500
  band No.  band energies     occupation 
      1     -10.3083      2.00000
      2     -10.0927      2.00000
      3      -4.4566      2.00000
      4      -4.4036      2.00000
      5      -4.3424      2.00000
      6      -4.2769      2.00000
      7      -4.2388      2.00000
      8      -4.2103      2.00000
      9      -4.0936      2.00000
     10      -4.0796      2.00000
     11      -3.9849      2.00000
     12      -3.8132      2.00000
     13      -2.8725      2.00000
     14      -2.3010      2.00000
     15      -1.0127      2.00000
     16      -0.5324      2.00000
     17       0.0439      2.00000
     18       0.4599      2.00000
     19       5.7428      0.00000
     20       6.4653      0.00000
     21       7.2740      0.00000
     22       7.7290      0.00000
     23       8.5381      0.00000
     24       9.8276      0.00000
     25      10.5526      0.00000
     26      11.2552      0.00000
     27      12.2069      0.00000
     28      13.3167      0.00000

 k-point    14 :       0.3333    0.3333    0.2500
  band No.  band energies     occupation 
      1     -10.1227      2.00000
      2     -10.1227      2.00000
      3      -4.4461      2.00000
      4      -4.3464      2.00000
      5      -4.3464      2.00000
      6      -4.2548      2.00000
      7      -4.1608      2.00000
      8      -4.1608      2.00000
      9      -4.1130      2.00000
     10      -4.1072      2.00000
     11      -3.8294      2.00000
     12      -3.8294      2.00000
     13      -2.6733      2.00000
     14      -2.6733      2.00000
     15      -1.6681      2.00000
     16      -0.5568      2.00000
     17      -0.0331      2.00000
     18      -0.0331      2.00000
     19       6.6474      0.00000
     20       6.6557      0.00000
     21       6.6557      0.00000
     22       8.9716      0.00000
     23       8.9716      0.00000
     24       9.1395      0.00000
     25      11.5667      0.00000
     26      11.6103      0.00000
     27      11.6103      0.00000
     28      11.9619      0.00000

 k-point    15 :       0.0000    0.0000    0.5000
  band No.  band energies     occupation 
      1     -10.7837      2.00000
      2     -10.7837      2.00000
      3      -4.4749      2.00000
      4      -4.4749      2.00000
      5      -4.4749      2.00000
      6      -4.4749      2.00000
      7      -4.4718      2.00000
      8      -4.4718      2.00000
      9      -4.0820      2.00000
     10      -4.0820      2.00000
     11      -4.0820      2.00000
     12      -4.0820      2.00000
     13      -1.1059      2.00000
     14      -1.1059      2.00000
     15       1.2045      2.00000
     16       1.2045      2.00000
     17       1.2045      2.00000
     18       1.2045      2.00000
     19       5.0021      0.00000
     20       5.0021      0.00000
     21       8.3078      0.00000
     22       8.3078      0.00000
     23       8.4107      0.00000
     24       8.4107      0.00000
     25       8.4107      0.00000
     26       8.4107      0.00000
     27      13.4984      0.00000
     28      13.4984      0.00000

 k-point    16 :       0.1667    0.0000    0.5000
  band No.  band energies     occupation 
      1     -10.6495      2.00000
      2     -10.6495      2.00000
      3      -4.4925      2.00000
      4      -4.4925      2.00000
      5      -4.4360      2.00000
      6      -4.4360      2.00000
      7      -4.4229      2.00000
      8      -4.4229      2.00000
      9      -4.0806      2.00000
     10      -4.0806      2.00000
     11      -4.0783      2.00000
     12      -4.0783      2.00000
     13      -1.2448      2.00000
     14      -1.2448      2.00000
     15       0.3984      2.00000
     16       0.3984      2.00000
     17       0.9113      2.00000
     18       0.9113      2.00000
     19       5.8288      0.00000
     20       5.8288      0.00000
     21       7.3389      0.00000
     22       7.3389      0.00000
     23       8.9102      0.00000
     24       8.9102      0.00000
     25       9.0482      0.00000
     26       9.0482      0.00000
     27      12.7911      0.00000
     28      12.7911      0.00000

 k-point    17 :       0.3333    0.0000    0.5000
  band No.  band energies     occupation 
      1     -10.3559      2.00000
      2     -10.3559      2.00000
      3      -4.4848      2.00000
      4      -4.4848      2.00000
      5      -4.3615      2.00000
      6      -4.3615      2.00000
      7      -4.3091      2.00000
      8      -4.3091      2.00000
      9      -4.0671      2.00000
     10      -4.0671      2.00000
     11      -4.0377      2.00000
     12      -4.0377      2.00000
     13      -2.2036      2.00000
     14      -2.2036      2.00000
     15       0.0482      2.00000
     16       0.0482      2.00000
     17       0.3973      2.00000
     18       0.3973      2.00000
     19       5.4901      0.00000
     20       5.4901      0.00000
     21       7.1829      0.00000
     22       7.1829      0.00000
     23       9.8891      0.00000
     24       9.8891      0.00000
     25      10.0843      0.00000
     26      10.0843      0.00000
     27      12.5648      0.00000
     28      12.5648      0.00000

 k-point    18 :       0.5000    0.0000    0.5000
  band No.  band energies     occupation 
      1     -10.1936      2.00000
      2     -10.1936      2.00000
      3      -4.4766      2.00000
      4      -4.4766      2.00000
      5      -4.3288      2.00000
      6      -4.3288      2.00000
      7      -4.2164      2.00000
      8      -4.2164      2.00000
      9      -4.0516      2.00000
     10      -4.0516      2.00000
     11      -3.8996      2.00000
     12      -3.8996      2.00000
     13      -2.9613      2.00000
     14      -2.9613      2.00000
     15       0.1385      2.00000
     16       0.1385      2.00000
     17       0.1644      2.00000
     18       0.1644      2.00000
     19       5.1485      0.00000
     20       5.1485      0.00000
     21       6.8813      0.00000
     22       6.8813      0.00000
     23      10.3477      0.00000
     24      10.3477      0.00000
     25      10.5802      0.00000
     26      10.5802      0.00000
     27      13.5993      0.00000
     28      13.5993      0.00000

 k-point    19 :       0.1667    0.1667    0.5000
  band No.  band energies     occupation 
      1     -10.4336      2.00000
      2     -10.4336      2.00000
      3      -4.4655      2.00000
      4      -4.4655      2.00000
      5      -4.3934      2.00000
      6      -4.3934      2.00000
      7      -4.3579      2.00000
      8      -4.3579      2.00000
      9      -4.0799      2.00000
     10      -4.0799      2.00000
     11      -4.0474      2.00000
     12      -4.0474      2.00000
     13      -1.8130      2.00000
     14      -1.8130      2.00000
     15       0.0742      2.00000
     16       0.0742      2.00000
     17       0.2814      2.00000
     18       0.2814      2.00000
     19       6.1797      0.00000
     20       6.1797      0.00000
     21       7.3583      0.00000
     22       7.3583      0.00000
     23       8.6692      0.00000
     24       8.6692      0.00000
     25       9.9271      0.00000
     26       9.9271      0.00000
     27      12.6414      0.00000
     28      12.6414      0.00000

 k-point    20 :       0.3333    0.1667    0.5000
  band No.  band energies     occupation 
      1     -10.1972      2.00000
      2     -10.1972      2.00000
      3      -4.4363      2.00000
      4      -4.4363      2.00000
      5      -4.3364      2.00000
      6      -4.3364      2.00000
      7      -4.2443      2.00000
      8      -4.2443      2.00000
      9      -4.0773      2.00000
     10      -4.0773      2.00000
     11      -3.9162      2.00000
     12      -3.9162      2.00000
     13      -2.7008      2.00000
     14      -2.7008      2.00000
     15      -0.5008      2.00000
     16      -0.5008      2.00000
     17       0.3022      2.00000
     18       0.3022      2.00000
     19       5.7909      0.00000
     20       5.7909      0.00000
     21       7.5023      0.00000
     22       7.5023      0.00000
     23       9.0773      0.00000
     24       9.0773      0.00000
     25      10.5652      0.00000
     26      10.5652      0.00000
     27      13.0720      0.00000
     28      13.0720      0.00000

 k-point    21 :       0.3333    0.3333    0.5000
  band No.  band energies     occupation 
      1     -10.1164      2.00000
      2     -10.1164      2.00000
      3      -4.3809      2.00000
      4      -4.3809      2.00000
      5      -4.3556      2.00000
      6      -4.3556      2.00000
      7      -4.1698      2.00000
      8      -4.1698      2.00000
      9      -4.1169      2.00000
     10      -4.1169      2.00000
     11      -3.7950      2.00000
     12      -3.7950      2.00000
     13      -2.8455      2.00000
     14      -2.8455      2.00000
     15      -1.1478      2.00000
     16      -1.1478      2.00000
     17       0.4039      2.00000
     18       0.4039      2.00000
     19       6.0338      0.00000
     20       6.0338      0.00000
     21       7.9958      0.00000
     22       7.9958      0.00000
     23       8.8129      0.00000
     24       8.8129      0.00000
     25      11.3359      0.00000
     26      11.3359      0.00000
     27      11.6853      0.00000
     28      11.6853      0.00000


--------------------------------------------------------------------------------------------------------


 soft charge-density along one line, spin component           1
         0         1         2         3         4         5         6         7         8         9
 total charge-density along one line

 pseudopotential strength for first ion, spin component:           1
-10.077  -0.000  -0.000  -0.000   0.000 -10.426  -0.000  -0.000
 -0.000 -10.077   0.000   0.000  -0.000  -0.000 -10.426   0.000
 -0.000   0.000 -10.076  -0.000   0.000  -0.000   0.000 -10.425
 -0.000   0.000  -0.000 -10.077  -0.000  -0.000   0.000  -0.000
  0.000  -0.000   0.000  -0.000 -10.077   0.000  -0.000   0.000
-10.426  -0.000  -0.000  -0.000   0.000 -10.701  -0.000  -0.000
 -0.000 -10.426   0.000   0.000  -0.000  -0.000 -10.701   0.000
 -0.000   0.000 -10.425  -0.000   0.000  -0.000   0.000 -10.700
 -0.000   0.000  -0.000 -10.426  -0.000  -0.000   0.000  -0.000
  0.000  -0.000   0.000  -0.000 -10.426   0.000  -0.000   0.000
  0.000  -0.000  -0.000  -0.000  -0.000   0.000  -0.000  -0.000
  0.000  -0.000  -0.000  -0.000  -0.000   0.000  -0.000  -0.000
 -0.000   0.002  -0.000  -0.000  -0.002  -0.000   0.001  -0.000
 -0.000   0.000  -0.002  -0.000   0.000  -0.000   0.000  -0.001
 -0.002  -0.000   0.000   0.002  -0.000  -0.001  -0.000   0.000
 -0.000   0.002  -0.000  -0.000  -0.002  -0.000   0.001  -0.000
 -0.000  -0.000  -0.002  -0.000   0.000  -0.000   0.000  -0.001
 -0.002  -0.000   0.000   0.002  -0.000  -0.001  -0.000   0.000
 total augmentation occupancy for first ion, spin component:           1
  3.404   0.000   0.000  -0.615   0.000  -1.380  -0.000  -0.000   0.609   0.000  -0.000   0.000   0.000  -0.000  -0.504  -0.000
  0.000   2.967   0.000  -0.000  -0.615  -0.000  -0.947   0.000   0.000   0.609  -0.000   0.000   0.359  -0.000  -0.000  -0.052
  0.000   0.000   3.829  -0.000  -0.000  -0.000   0.000  -1.796   0.000   0.000   0.012  -0.001  -0.000  -0.609  -0.000   0.000
 -0.615  -0.000  -0.000   2.967  -0.000   0.609   0.000   0.000  -0.947   0.000   0.000   0.000  -0.000  -0.000   0.359   0.000
 -0.000  -0.615  -0.000   0.000   3.404   0.000   0.609   0.000  -0.000  -1.380   0.000  -0.000  -0.504   0.000   0.000   0.073
 -1.380  -0.000  -0.000   0.609  -0.000   1.349   0.000   0.000  -0.602   0.000   0.000  -0.000  -0.000   0.000   0.487   0.000
 -0.000  -0.947   0.000   0.000   0.609   0.000   0.920  -0.000  -0.000  -0.602   0.000  -0.000  -0.347  -0.000   0.000   0.058
 -0.000   0.000  -1.796   0.000   0.000   0.000  -0.000   1.757  -0.000   0.000  -0.012   0.002   0.000   0.588   0.000   0.000
  0.609   0.000   0.000  -0.947   0.000  -0.602  -0.000  -0.000   0.920   0.000  -0.000   0.000   0.000   0.000  -0.347  -0.000
 -0.000   0.609   0.000  -0.000  -1.380   0.000  -0.602  -0.000   0.000   1.349  -0.000   0.000   0.487  -0.000  -0.000  -0.082
 -0.000   0.000   0.012   0.000   0.000   0.000   0.000  -0.012  -0.000  -0.000   2.331  -0.520   0.000  -0.003   0.000   0.000
  0.000   0.000  -0.001  -0.000  -0.000  -0.000  -0.000   0.002   0.000   0.000  -0.520   0.140   0.000   0.001  -0.000   0.000
  0.000   0.359  -0.000  -0.000  -0.504  -0.000  -0.347   0.000   0.000   0.487   0.000   0.000   0.325  -0.000  -0.000  -0.055
 -0.000  -0.000  -0.609  -0.000   0.000   0.000   0.000   0.588   0.000  -0.000  -0.003   0.001  -0.000   0.322  -0.000   0.000
 -0.504  -0.000  -0.000   0.359   0.000   0.487   0.000   0.000  -0.347   0.000   0.000  -0.000  -0.000  -0.000   0.325   0.000
 -0.000  -0.052   0.000   0.000   0.073   0.000   0.058  -0.000  -0.000  -0.082   0.000   0.000  -0.055  -0.000   0.000   0.011
  0.000  -0.000   0.088   0.000  -0.000  -0.000   0.000  -0.099  -0.000   0.000   0.001  -0.000  -0.000  -0.055   0.000   0.000
  0.073   0.000   0.000  -0.052   0.000  -0.082  -0.000  -0.000   0.058  -0.000  -0.000   0.000   0.000   0.000  -0.055  -0.000


------------------------ aborting loop because EDIFF is reached ----------------------------------------


    CHARGE:  cpu time      0.2530: real time      0.2046
    FORLOC:  cpu time      0.0085: real time      0.0063
    FORNL :  cpu time      0.0621: real time      0.0580
    STRESS:  cpu time      0.4400: real time      0.4483
    FORCOR:  cpu time      0.1038: real time      0.1006
    FORHAR:  cpu time      0.0217: real time      0.0221
    MIXING:  cpu time      0.0059: real time      0.0055
    OFIELD:  cpu time      0.0000: real time      0.0000

  FORCE on cell =-STRESS in cart. coord.  units (eV):
  Direction    XX          YY          ZZ          XY          YZ          ZX
  --------------------------------------------------------------------------------------
  Alpha Z   135.59071   135.59071   135.59071
  Ewald    -828.29537  -828.29537  -801.46258     0.00000     0.00000    -0.00000
  Hartree   459.31027   459.31027   479.29628     0.00000     0.00000    -0.00000
  E(xc)    -186.83207  -186.83206  -186.79815     0.00000     0.00000    -0.00000
  Local      -7.08425    -7.08390   -53.76547    -0.00000     0.00000     0.00000
  n-local    76.09391    80.87828    78.38107     2.61255     0.16589    -0.55230
  augment    46.08048    46.08018    46.15054    -0.00000    -0.00000    -0.00000
  Kinetic   297.66778   305.83246   301.57709     5.60915     0.37173    -0.92170
  Fock        0.00000     0.00000     0.00000     0.00000     0.00000     0.00000
  -------------------------------------------------------------------------------------
  Total      -0.99398    -0.99398    -1.03051     0.00000    -0.00000     0.00000
  in kB     -19.09555   -19.09555   -19.79738     0.00000    -0.00000     0.00000
  external pressure =      -19.33 kB  Pullay stress =        0.00 kB


 VOLUME and BASIS-vectors are now :
 -----------------------------------------------------------------------------
  energy-cutoff  :      520.00
  volume of cell :       83.40
      direct lattice vectors                 reciprocal lattice vectors
     1.943565552 -3.366354284  0.000000000     0.257259139 -0.148528633  0.000000000
     1.943565552  3.366354284  0.000000000     0.257259139  0.148528633 -0.000000000
     0.000000000  0.000000000  6.373331546    -0.000000000  0.000000000  0.156903810

  length of vectors
     3.887131105  3.887131105  6.373331546     0.297057266  0.297057266  0.156903810


 FORCES acting on ions
    electron-ion (+dipol)            ewald-force                    non-local-force                 convergence-correction
 -----------------------------------------------------------------------------------------------
   -.811E-07 -.461E-07 -.412E+01   -.169E-13 0.486E-11 0.403E+01   -.410E-17 -.530E-17 0.826E-01   0.387E-13 0.338E-11 0.640E-05
   -.811E-07 0.461E-07 -.412E+01   0.126E-13 -.485E-11 0.403E+01   0.420E-18 -.539E-17 0.826E-01   -.112E-13 -.330E-11 0.640E-05
   -.129E-06 0.330E-06 0.398E+01   -.197E-13 0.453E-11 -.403E+01   0.139E-16 0.717E-17 0.491E-01   0.137E-13 0.605E-11 -.300E-04
   -.129E-06 -.330E-06 0.398E+01   0.118E-13 -.452E-11 -.403E+01   -.839E-17 -.330E-16 0.491E-01   -.254E-13 -.605E-11 -.300E-04
 -----------------------------------------------------------------------------------------------
   -.421E-06 -.379E-11 -.264E+00   -.122E-13 0.365E-14 0.888E-15   0.182E-17 -.365E-16 0.263E+00   0.158E-13 0.888E-13 -.473E-04


 POSITION                                       TOTAL-FORCE (eV/Angst)
 -----------------------------------------------------------------------------------
      1.94357      1.12212      0.00097        -0.000000     -0.000000      0.000044
      1.94357     -1.12212      3.18763        -0.000000     -0.000000      0.000044
      1.94357      1.12212      2.38903         0.000000      0.000000     -0.000044
      1.94357     -1.12212      5.57570        -0.000000     -0.000000     -0.000044
 -----------------------------------------------------------------------------------
    total drift:                               -0.000000     -0.000000     -0.000633


--------------------------------------------------------------------------------------------------------



  FREE ENERGIE OF THE ION-ELECTRON SYSTEM (eV)
  ---------------------------------------------------
  free  energy   TOTEN  =       -13.67387660 eV

  energy  without entropy=      -13.67387660  energy(sigma->0) =      -13.67387660

 d Force = 0.2628938E-05[-0.658E-07, 0.532E-05]  d Energy = 0.2752665E-05-0.124E-06
 d Force =-0.5984587E-02[-0.605E-02,-0.592E-02]  d Ewald  =-0.5984615E-02 0.275E-07


--------------------------------------------------------------------------------------------------------


    POTLOK:  cpu time      0.0955: real time      0.0950


--------------------------------------------------------------------------------------------------------


 Quasi-Newton relaxation of ions (Broydens 2nd method)
  g(Force)  = 0.372E-09   g(Stress)= 0.000E+00

 retain information from N=  1 steps
 eigenvalues of (default step * inverse Hessian matrix)
  average eigenvalue of G=   2.1601
 eigenvalue spectrum of G is  2.1601


--------------------------------------------------------------------------------------------------------


  
 reached required accuracy - stopping structural energy minimisation
 writing wavefunctions
     LOOP+:  cpu time     49.5637: real time     50.2752
    4ORBIT:  cpu time      0.0000: real time      0.0000

 total amount of memory used by VASP MPI-rank0    49997. kBytes
=======================================================================

   base      :      30000. kBytes
   nonl-proj :      13862. kBytes
   fftplans  :       1133. kBytes
   grid      :       3379. kBytes
   one-center:         62. kBytes
   wavefun   :       1561. kBytes

  
  
 General timing and accounting informations for this job:
 ========================================================
  
                  Total CPU time used (sec):      233.177
                            User time (sec):      135.536
                          System time (sec):       97.640
                         Elapsed time (sec):      236.177
  
                   Maximum memory used (kb):    76546048.
                   Average memory used (kb):          N/A
  
                          Minor page faults:        10032
                          Major page faults:          156
                 Voluntary context switches:           14
