mesh: [    16,    16,    16 ]
nqpoint: 576    
reciprocal_lattice:
- [   0.26513442,  -0.15307543,   0.00000000 ] # a*
- [   0.26513442,   0.15307543,   0.00000000 ] # b*
- [   0.00000000,   0.00000000,   0.16170699 ] # c*
natom:   4      
lattice:
- [     1.885835882396936,    -3.266363563047980,     0.000000000000000 ] # a
- [     1.885835882396936,     3.266363563047980,     0.000000000000000 ] # b
- [     0.000000000000000,     0.000000000000000,     6.184024668799145 ] # c
points:
- symbol: Zn # 1
  coordinates: [  0.333333333333336,  0.666666666666664,  0.000412486606820 ]
  mass: 65.380000
- symbol: Zn # 2
  coordinates: [  0.666666666666664,  0.333333333333336,  0.500412486606820 ]
  mass: 65.380000
- symbol: S # 3
  coordinates: [  0.333333333333336,  0.666666666666664,  0.374587513393180 ]
  mass: 32.065000
- symbol: S # 4
  coordinates: [  0.666666666666664,  0.333333333333336,  0.874587513393180 ]
  mass: 32.065000

phonon:
- q-position: [    0.0312500,    0.0312500,    0.0312500 ]
  distance_from_gamma:  0.017324291
  weight: 4    
  band:
  - # 1
    frequency:     0.3630104361
  - # 2
    frequency:     0.3717455298
  - # 3
    frequency:     0.9246948460
  - # 4
    frequency:     1.9198705659
  - # 5
    frequency:     2.0165726639
  - # 6
    frequency:     5.9051602876
  - # 7
    frequency:     8.6751095652
  - # 8
    frequency:     8.7901089433
  - # 9
    frequency:     8.8585928155
  - # 10
    frequency:     9.0277643794
  - # 11
    frequency:     9.0329569557
  - # 12
    frequency:    10.5100805243

- q-position: [    0.0937500,    0.0312500,    0.0312500 ]
  distance_from_gamma:  0.034863260
  weight: 8    
  band:
  - # 1
    frequency:     0.7393338042
  - # 2
    frequency:     0.7604106094
  - # 3
    frequency:     1.7586991070
  - # 4
    frequency:     2.0280895819
  - # 5
    frequency:     2.3621991028
  - # 6
    frequency:     5.8419760307
  - # 7
    frequency:     8.7185463770
  - # 8
    frequency:     8.8551965896
  - # 9
    frequency:     9.0656555239
  - # 10
    frequency:     9.1100449542
  - # 11
    frequency:     9.1642258019
  - # 12
    frequency:    10.5099529718

- q-position: [    0.1562500,    0.0312500,    0.0312500 ]
  distance_from_gamma:  0.053507154
  weight: 8    
  band:
  - # 1
    frequency:     1.0988880444
  - # 2
    frequency:     1.1887010945
  - # 3
    frequency:     2.1008690680
  - # 4
    frequency:     2.6390432229
  - # 5
    frequency:     2.8713987138
  - # 6
    frequency:     5.7685180049
  - # 7
    frequency:     8.8024842852
  - # 8
    frequency:     8.9443210436
  - # 9
    frequency:     9.2072750797
  - # 10
    frequency:     9.2311215521
  - # 11
    frequency:     9.5137335737
  - # 12
    frequency:    10.5155410316

- q-position: [    0.2187500,    0.0312500,    0.0312500 ]
  distance_from_gamma:  0.072407436
  weight: 8    
  band:
  - # 1
    frequency:     1.4180874523
  - # 2
    frequency:     1.6168587115
  - # 3
    frequency:     2.2516612689
  - # 4
    frequency:     3.1224268317
  - # 5
    frequency:     3.6085345663
  - # 6
    frequency:     5.7482485567
  - # 7
    frequency:     8.9190098803
  - # 8
    frequency:     9.0266619338
  - # 9
    frequency:     9.3320533672
  - # 10
    frequency:     9.3720901471
  - # 11
    frequency:     9.8890199900
  - # 12
    frequency:    10.5352523817

- q-position: [    0.2812500,    0.0312500,    0.0312500 ]
  distance_from_gamma:  0.091405201
  weight: 8    
  band:
  - # 1
    frequency:     1.6738364437
  - # 2
    frequency:     2.0151683209
  - # 3
    frequency:     2.3949001417
  - # 4
    frequency:     3.3526827316
  - # 5
    frequency:     4.3456120371
  - # 6
    frequency:     5.8320960638
  - # 7
    frequency:     9.0538447586
  - # 8
    frequency:     9.0840759781
  - # 9
    frequency:     9.4377322340
  - # 10
    frequency:     9.5093258843
  - # 11
    frequency:    10.1748202962
  - # 12
    frequency:    10.5812461180

- q-position: [    0.3437500,    0.0312500,    0.0312500 ]
  distance_from_gamma:  0.110450159
  weight: 8    
  band:
  - # 1
    frequency:     1.8486370405
  - # 2
    frequency:     2.3588772020
  - # 3
    frequency:     2.5224857570
  - # 4
    frequency:     3.3977862966
  - # 5
    frequency:     4.9628528510
  - # 6
    frequency:     5.9898031840
  - # 7
    frequency:     9.0993519367
  - # 8
    frequency:     9.2016103767
  - # 9
    frequency:     9.5226396941
  - # 10
    frequency:     9.6284421695
  - # 11
    frequency:    10.3087811439
  - # 12
    frequency:    10.6607264350

- q-position: [    0.4062500,    0.0312500,    0.0312500 ]
  distance_from_gamma:  0.129521492
  weight: 8    
  band:
  - # 1
    frequency:     1.9443706273
  - # 2
    frequency:     2.6126380856
  - # 3
    frequency:     2.6338640523
  - # 4
    frequency:     3.3361248781
  - # 5
    frequency:     5.4108824465
  - # 6
    frequency:     6.1250723454
  - # 7
    frequency:     9.1009429279
  - # 8
    frequency:     9.3158125357
  - # 9
    frequency:     9.5884786645
  - # 10
    frequency:     9.7222772766
  - # 11
    frequency:    10.3274286751
  - # 12
    frequency:    10.7312173032

- q-position: [    0.4687500,    0.0312500,    0.0312500 ]
  distance_from_gamma:  0.148609048
  weight: 8    
  band:
  - # 1
    frequency:     1.9796090949
  - # 2
    frequency:     2.6642255090
  - # 3
    frequency:     2.7774057386
  - # 4
    frequency:     3.2663867949
  - # 5
    frequency:     5.6289117297
  - # 6
    frequency:     6.1789908136
  - # 7
    frequency:     9.0975814552
  - # 8
    frequency:     9.3718829458
  - # 9
    frequency:     9.6226074178
  - # 10
    frequency:     9.7745067189
  - # 11
    frequency:    10.3126769533
  - # 12
    frequency:    10.7601414073

- q-position: [   -0.4687500,    0.0312500,    0.0312500 ]
  distance_from_gamma:  0.139063660
  weight: 8    
  band:
  - # 1
    frequency:     1.9683145931
  - # 2
    frequency:     2.6479722876
  - # 3
    frequency:     2.7237025624
  - # 4
    frequency:     3.2947934675
  - # 5
    frequency:     5.5534790886
  - # 6
    frequency:     6.1623344083
  - # 7
    frequency:     9.0989927297
  - # 8
    frequency:     9.3527092217
  - # 9
    frequency:     9.6107390543
  - # 10
    frequency:     9.7556652381
  - # 11
    frequency:    10.3196106403
  - # 12
    frequency:    10.7508436492

- q-position: [   -0.4062500,    0.0312500,    0.0312500 ]
  distance_from_gamma:  0.119983314
  weight: 8    
  band:
  - # 1
    frequency:     1.9053979194
  - # 2
    frequency:     2.5034583671
  - # 3
    frequency:     2.5766013978
  - # 4
    frequency:     3.3746100760
  - # 5
    frequency:     5.2112237296
  - # 6
    frequency:     6.0659072604
  - # 7
    frequency:     9.1018033075
  - # 8
    frequency:     9.2640739669
  - # 9
    frequency:     9.5583289202
  - # 10
    frequency:     9.6789985779
  - # 11
    frequency:    10.3271757456
  - # 12
    frequency:    10.7005372307

- q-position: [   -0.3437500,    0.0312500,    0.0312500 ]
  distance_from_gamma:  0.100923449
  weight: 8    
  band:
  - # 1
    frequency:     1.7717982556
  - # 2
    frequency:     2.1951538414
  - # 3
    frequency:     2.4613358377
  - # 4
    frequency:     3.3942015694
  - # 5
    frequency:     4.6723858069
  - # 6
    frequency:     5.9073531872
  - # 7
    frequency:     9.0903030604
  - # 8
    frequency:     9.1339317304
  - # 9
    frequency:     9.4825056540
  - # 10
    frequency:     9.5716628553
  - # 11
    frequency:    10.2610946749
  - # 12
    frequency:    10.6181812486

- q-position: [   -0.2812500,    0.0312500,    0.0312500 ]
  distance_from_gamma:  0.081898365
  weight: 8    
  band:
  - # 1
    frequency:     1.5552945356
  - # 2
    frequency:     1.8214533676
  - # 3
    frequency:     2.3246297271
  - # 4
    frequency:     3.2639221517
  - # 5
    frequency:     3.9884443544
  - # 6
    frequency:     5.7765764927
  - # 7
    frequency:     8.9859358156
  - # 8
    frequency:     9.0583027924
  - # 9
    frequency:     9.3876574580
  - # 10
    frequency:     9.4423398648
  - # 11
    frequency:    10.0485605659
  - # 12
    frequency:    10.5539373272

- q-position: [   -0.2187500,    0.0312500,    0.0312500 ]
  distance_from_gamma:  0.062939611
  weight: 8    
  band:
  - # 1
    frequency:     1.2649518355
  - # 2
    frequency:     1.4047031769
  - # 3
    frequency:     2.1770315825
  - # 4
    frequency:     2.9228754986
  - # 5
    frequency:     3.2212639432
  - # 6
    frequency:     5.7474332726
  - # 7
    frequency:     8.8572703278
  - # 8
    frequency:     8.9880025920
  - # 9
    frequency:     9.2715332363
  - # 10
    frequency:     9.3006647127
  - # 11
    frequency:     9.7066579392
  - # 12
    frequency:    10.5230137319

- q-position: [   -0.1562500,    0.0312500,    0.0312500 ]
  distance_from_gamma:  0.044132750
  weight: 8    
  band:
  - # 1
    frequency:     0.9227823625
  - # 2
    frequency:     0.9727066839
  - # 3
    frequency:     2.0118220676
  - # 4
    frequency:     2.2692976480
  - # 5
    frequency:     2.5963902754
  - # 6
    frequency:     5.8029657568
  - # 7
    frequency:     8.7559016754
  - # 8
    frequency:     8.8987756255
  - # 9
    frequency:     9.1403810477
  - # 10
    frequency:     9.1668302143
  - # 11
    frequency:     9.3249781152
  - # 12
    frequency:    10.5115576581

- q-position: [   -0.0937500,    0.0312500,    0.0312500 ]
  distance_from_gamma:  0.025811962
  weight: 8    
  band:
  - # 1
    frequency:     0.5512305677
  - # 2
    frequency:     0.5562410056
  - # 3
    frequency:     1.3386895242
  - # 4
    frequency:     1.9583793238
  - # 5
    frequency:     2.1638055883
  - # 6
    frequency:     5.8779681589
  - # 7
    frequency:     8.6913641785
  - # 8
    frequency:     8.8176707571
  - # 9
    frequency:     8.9598008873
  - # 10
    frequency:     9.0625583593
  - # 11
    frequency:     9.0737669309
  - # 12
    frequency:    10.5097345336

- q-position: [   -0.0312500,    0.0312500,    0.0312500 ]
  distance_from_gamma:  0.010819791
  weight: 4    
  band:
  - # 1
    frequency:     0.2193861641
  - # 2
    frequency:     0.2326870429
  - # 3
    frequency:     0.6078674460
  - # 4
    frequency:     1.9019365709
  - # 5
    frequency:     1.9367193290
  - # 6
    frequency:     5.9197104951
  - # 7
    frequency:     8.6689908810
  - # 8
    frequency:     8.7757901701
  - # 9
    frequency:     8.8006224552
  - # 10
    frequency:     9.0107414884
  - # 11
    frequency:     9.0132875272
  - # 12
    frequency:    10.5104053321

- q-position: [    0.0937500,    0.0937500,    0.0312500 ]
  distance_from_gamma:  0.049968882
  weight: 4    
  band:
  - # 1
    frequency:     1.1044944050
  - # 2
    frequency:     1.1273970403
  - # 3
    frequency:     2.0222008992
  - # 4
    frequency:     2.5865919153
  - # 5
    frequency:     2.6793164756
  - # 6
    frequency:     5.7795823370
  - # 7
    frequency:     8.7833893231
  - # 8
    frequency:     8.9553560715
  - # 9
    frequency:     9.1600907012
  - # 10
    frequency:     9.2041211730
  - # 11
    frequency:     9.4418076833
  - # 12
    frequency:    10.5122524036

- q-position: [    0.1562500,    0.0937500,    0.0312500 ]
  distance_from_gamma:  0.067160882
  weight: 8    
  band:
  - # 1
    frequency:     1.4814103246
  - # 2
    frequency:     1.5039515267
  - # 3
    frequency:     2.2188756492
  - # 4
    frequency:     3.0099769776
  - # 5
    frequency:     3.3205061095
  - # 6
    frequency:     5.7392029892
  - # 7
    frequency:     8.8830474160
  - # 8
    frequency:     9.0634014798
  - # 9
    frequency:     9.2859244168
  - # 10
    frequency:     9.3142047011
  - # 11
    frequency:     9.7821247754
  - # 12
    frequency:    10.5198437844

- q-position: [    0.2187500,    0.0937500,    0.0312500 ]
  distance_from_gamma:  0.085185279
  weight: 8    
  band:
  - # 1
    frequency:     1.7756687217
  - # 2
    frequency:     1.8934786237
  - # 3
    frequency:     2.4011215933
  - # 4
    frequency:     3.2597769534
  - # 5
    frequency:     4.0312516408
  - # 6
    frequency:     5.7745260512
  - # 7
    frequency:     9.0078558687
  - # 8
    frequency:     9.1358281888
  - # 9
    frequency:     9.3704207163
  - # 10
    frequency:     9.4861954572
  - # 11
    frequency:    10.0866606510
  - # 12
    frequency:    10.5382859616

- q-position: [    0.2812500,    0.0937500,    0.0312500 ]
  distance_from_gamma:  0.103608552
  weight: 8    
  band:
  - # 1
    frequency:     1.9923125449
  - # 2
    frequency:     2.2480102066
  - # 3
    frequency:     2.5538911508
  - # 4
    frequency:     3.3640622184
  - # 5
    frequency:     4.6664193260
  - # 6
    frequency:     5.8921445109
  - # 7
    frequency:     9.1216075957
  - # 8
    frequency:     9.1913842415
  - # 9
    frequency:     9.4327808507
  - # 10
    frequency:     9.6560088599
  - # 11
    frequency:    10.2740602242
  - # 12
    frequency:    10.5863442441

- q-position: [    0.3437500,    0.0937500,    0.0312500 ]
  distance_from_gamma:  0.122250502
  weight: 8    
  band:
  - # 1
    frequency:     2.1287748717
  - # 2
    frequency:     2.5376508312
  - # 3
    frequency:     2.6747084663
  - # 4
    frequency:     3.3504665698
  - # 5
    frequency:     5.1776866163
  - # 6
    frequency:     6.0256114508
  - # 7
    frequency:     9.1444434678
  - # 8
    frequency:     9.3057435471
  - # 9
    frequency:     9.4723062504
  - # 10
    frequency:     9.7969529438
  - # 11
    frequency:    10.3171090590
  - # 12
    frequency:    10.6651756659

- q-position: [    0.4062500,    0.0937500,    0.0312500 ]
  distance_from_gamma:  0.141024434
  weight: 8    
  band:
  - # 1
    frequency:     2.1946326031
  - # 2
    frequency:     2.7199568318
  - # 3
    frequency:     2.7672222573
  - # 4
    frequency:     3.2880585506
  - # 5
    frequency:     5.5104236125
  - # 6
    frequency:     6.0999894266
  - # 7
    frequency:     9.1418731385
  - # 8
    frequency:     9.4006664016
  - # 9
    frequency:     9.4904824958
  - # 10
    frequency:     9.8934829220
  - # 11
    frequency:    10.2923909088
  - # 12
    frequency:    10.7194811556

- q-position: [   -0.5312500,    0.0937500,    0.0312500 ]
  distance_from_gamma:  0.150445467
  weight: 8    
  band:
  - # 1
    frequency:     2.2066222899
  - # 2
    frequency:     2.7476587066
  - # 3
    frequency:     2.8035763728
  - # 4
    frequency:     3.2660640877
  - # 5
    frequency:     5.5852990490
  - # 6
    frequency:     6.1108314806
  - # 7
    frequency:     9.1407223118
  - # 8
    frequency:     9.4232372055
  - # 9
    frequency:     9.4928926534
  - # 10
    frequency:     9.9165275684
  - # 11
    frequency:    10.2811240985
  - # 12
    frequency:    10.7302115987

- q-position: [   -0.4687500,    0.0937500,    0.0312500 ]
  distance_from_gamma:  0.131624490
  weight: 8    
  band:
  - # 1
    frequency:     2.1694016735
  - # 2
    frequency:     2.6477922335
  - # 3
    frequency:     2.7225736153
  - # 4
    frequency:     3.3203960320
  - # 5
    frequency:     5.3706894280
  - # 6
    frequency:     6.0725864915
  - # 7
    frequency:     9.1436107700
  - # 8
    frequency:     9.3597511166
  - # 9
    frequency:     9.4839054548
  - # 10
    frequency:     9.8520466675
  - # 11
    frequency:    10.3076638679
  - # 12
    frequency:    10.6976663947

- q-position: [   -0.4062500,    0.0937500,    0.0312500 ]
  distance_from_gamma:  0.112908933
  weight: 8    
  band:
  - # 1
    frequency:     2.0703564512
  - # 2
    frequency:     2.4025940288
  - # 3
    frequency:     2.6185041879
  - # 4
    frequency:     3.3680578040
  - # 5
    frequency:     4.9405632274
  - # 6
    frequency:     5.9625356163
  - # 7
    frequency:     9.1407342301
  - # 8
    frequency:     9.2453047796
  - # 9
    frequency:     9.4553651838
  - # 10
    frequency:     9.7310354310
  - # 11
    frequency:    10.3100138348
  - # 12
    frequency:    10.6253767812

- q-position: [   -0.3437500,    0.0937500,    0.0312500 ]
  distance_from_gamma:  0.094361541
  weight: 8    
  band:
  - # 1
    frequency:     1.8939444791
  - # 2
    frequency:     2.0772412213
  - # 3
    frequency:     2.4813815873
  - # 4
    frequency:     3.3300626798
  - # 5
    frequency:     4.3613666701
  - # 6
    frequency:     5.8258654277
  - # 7
    frequency:     9.0720832723
  - # 8
    frequency:     9.1600069507
  - # 9
    frequency:     9.4043953987
  - # 10
    frequency:     9.5735855617
  - # 11
    frequency:    10.1994530873
  - # 12
    frequency:    10.5568118224

- q-position: [   -0.2812500,    0.0937500,    0.0312500 ]
  distance_from_gamma:  0.076105363
  weight: 8    
  band:
  - # 1
    frequency:     1.6383395768
  - # 2
    frequency:     1.7004892133
  - # 3
    frequency:     2.3132841871
  - # 4
    frequency:     3.1515336208
  - # 5
    frequency:     3.6820991129
  - # 6
    frequency:     5.7451631159
  - # 7
    frequency:     8.9432905792
  - # 8
    frequency:     9.1048072258
  - # 9
    frequency:     9.3312995925
  - # 10
    frequency:     9.3975288852
  - # 11
    frequency:     9.9441398711
  - # 12
    frequency:    10.5270285835

- q-position: [   -0.2187500,    0.0937500,    0.0312500 ]
  distance_from_gamma:  0.058414083
  weight: 8    
  band:
  - # 1
    frequency:     1.2972885742
  - # 2
    frequency:     1.3168499588
  - # 3
    frequency:     2.1205333097
  - # 4
    frequency:     2.8447184296
  - # 5
    frequency:     2.9550804129
  - # 6
    frequency:     5.7529314289
  - # 7
    frequency:     8.8292940177
  - # 8
    frequency:     9.0122310379
  - # 9
    frequency:     9.2243474337
  - # 10
    frequency:     9.2523966660
  - # 11
    frequency:     9.6110368818
  - # 12
    frequency:    10.5151603391

- q-position: [   -0.1562500,    0.0937500,    0.0312500 ]
  distance_from_gamma:  0.042007576
  weight: 8    
  band:
  - # 1
    frequency:     0.9205468370
  - # 2
    frequency:     0.9305156432
  - # 3
    frequency:     1.9206554286
  - # 4
    frequency:     2.2538033314
  - # 5
    frequency:     2.5113341308
  - # 6
    frequency:     5.8115661991
  - # 7
    frequency:     8.7462769959
  - # 8
    frequency:     8.9001077437
  - # 9
    frequency:     9.1078945776
  - # 10
    frequency:     9.1575785325
  - # 11
    frequency:     9.2866469251
  - # 12
    frequency:    10.5106563336

- q-position: [   -0.0937500,    0.0937500,    0.0312500 ]
  distance_from_gamma:  0.029143105
  weight: 4    
  band:
  - # 1
    frequency:     0.6028595162
  - # 2
    frequency:     0.6303357189
  - # 3
    frequency:     1.5161326377
  - # 4
    frequency:     1.9624511537
  - # 5
    frequency:     2.2405943492
  - # 6
    frequency:     5.8653481353
  - # 7
    frequency:     8.7003338172
  - # 8
    frequency:     8.8275176649
  - # 9
    frequency:     9.0100866529
  - # 10
    frequency:     9.0709552597
  - # 11
    frequency:     9.1018616940
  - # 12
    frequency:    10.5097497021

- q-position: [    0.1562500,    0.1562500,    0.0312500 ]
  distance_from_gamma:  0.083008466
  weight: 4    
  band:
  - # 1
    frequency:     1.8425420740
  - # 2
    frequency:     1.8779379492
  - # 3
    frequency:     2.4112876506
  - # 4
    frequency:     3.2091100029
  - # 5
    frequency:     3.8864229530
  - # 6
    frequency:     5.7541129274
  - # 7
    frequency:     8.9925366445
  - # 8
    frequency:     9.1737296278
  - # 9
    frequency:     9.3907802231
  - # 10
    frequency:     9.4220515026
  - # 11
    frequency:    10.0511860258
  - # 12
    frequency:    10.5191722458

- q-position: [    0.2187500,    0.1562500,    0.0312500 ]
  distance_from_gamma:  0.100012396
  weight: 8    
  band:
  - # 1
    frequency:     2.1622783004
  - # 2
    frequency:     2.1998935238
  - # 3
    frequency:     2.6139791305
  - # 4
    frequency:     3.3042434654
  - # 5
    frequency:     4.4378493621
  - # 6
    frequency:     5.8271478718
  - # 7
    frequency:     9.1160574085
  - # 8
    frequency:     9.2111177425
  - # 9
    frequency:     9.4745970537
  - # 10
    frequency:     9.5959460174
  - # 11
    frequency:    10.2648831617
  - # 12
    frequency:    10.5161443029

- q-position: [    0.2812500,    0.1562500,    0.0312500 ]
  distance_from_gamma:  0.117672453
  weight: 8    
  band:
  - # 1
    frequency:     2.3801065142
  - # 2
    frequency:     2.4854191040
  - # 3
    frequency:     2.7795404543
  - # 4
    frequency:     3.3175003321
  - # 5
    frequency:     4.9301871041
  - # 6
    frequency:     5.9233886955
  - # 7
    frequency:     9.1817462828
  - # 8
    frequency:     9.2707679874
  - # 9
    frequency:     9.5100548577
  - # 10
    frequency:     9.7835818907
  - # 11
    frequency:    10.3430877531
  - # 12
    frequency:    10.5611109609

- q-position: [    0.3437500,    0.1562500,    0.0312500 ]
  distance_from_gamma:  0.135732773
  weight: 8    
  band:
  - # 1
    frequency:     2.5048654801
  - # 2
    frequency:     2.7081839413
  - # 3
    frequency:     2.8827246944
  - # 4
    frequency:     3.2897546467
  - # 5
    frequency:     5.3152403110
  - # 6
    frequency:     5.9842543794
  - # 7
    frequency:     9.1857435121
  - # 8
    frequency:     9.3534458813
  - # 9
    frequency:     9.5229715357
  - # 10
    frequency:     9.9405503271
  - # 11
    frequency:    10.2940505974
  - # 12
    frequency:    10.6419817560

- q-position: [    0.4062500,    0.1562500,    0.0312500 ]
  distance_from_gamma:  0.154052646
  weight: 8    
  band:
  - # 1
    frequency:     2.5537446359
  - # 2
    frequency:     2.8447564713
  - # 3
    frequency:     2.8985819135
  - # 4
    frequency:     3.2665751134
  - # 5
    frequency:     5.5188304517
  - # 6
    frequency:     5.9907175966
  - # 7
    frequency:     9.1906833856
  - # 8
    frequency:     9.3747762495
  - # 9
    frequency:     9.5407446133
  - # 10
    frequency:    10.0399851594
  - # 11
    frequency:    10.2276602883
  - # 12
    frequency:    10.6825062444

- q-position: [   -0.5312500,    0.1562500,    0.0312500 ]
  distance_from_gamma:  0.144866387
  weight: 8    
  band:
  - # 1
    frequency:     2.5378255606
  - # 2
    frequency:     2.7894412834
  - # 3
    frequency:     2.9021107687
  - # 4
    frequency:     3.2751137265
  - # 5
    frequency:     5.4463455097
  - # 6
    frequency:     5.9918702446
  - # 7
    frequency:     9.1883666909
  - # 8
    frequency:     9.3702680759
  - # 9
    frequency:     9.5326693658
  - # 10
    frequency:    10.0009665020
  - # 11
    frequency:    10.2565626922
  - # 12
    frequency:    10.6688206299

- q-position: [   -0.4687500,    0.1562500,    0.0312500 ]
  distance_from_gamma:  0.126663192
  weight: 8    
  band:
  - # 1
    frequency:     2.4529837166
  - # 2
    frequency:     2.6061351290
  - # 3
    frequency:     2.8405692083
  - # 4
    frequency:     3.3058124550
  - # 5
    frequency:     5.1397725904
  - # 6
    frequency:     5.9612474692
  - # 7
    frequency:     9.1842471437
  - # 8
    frequency:     9.3185813053
  - # 9
    frequency:     9.5165042715
  - # 10
    frequency:     9.8671570689
  - # 11
    frequency:    10.3266684660
  - # 12
    frequency:    10.6039801402

- q-position: [   -0.4062500,    0.1562500,    0.0312500 ]
  distance_from_gamma:  0.108780105
  weight: 8    
  band:
  - # 1
    frequency:     2.2842172024
  - # 2
    frequency:     2.3484539570
  - # 3
    frequency:     2.7031209740
  - # 4
    frequency:     3.3188710679
  - # 5
    frequency:     4.6941094644
  - # 6
    frequency:     5.8761048757
  - # 7
    frequency:     9.1649228815
  - # 8
    frequency:     9.2283077167
  - # 9
    frequency:     9.4974572742
  - # 10
    frequency:     9.6920064311
  - # 11
    frequency:    10.3263676644
  - # 12
    frequency:    10.5280725969

- q-position: [   -0.3437500,    0.1562500,    0.0312500 ]
  distance_from_gamma:  0.091405201
  weight: 8    
  band:
  - # 1
    frequency:     2.0115995576
  - # 2
    frequency:     2.0451945176
  - # 3
    frequency:     2.5151123032
  - # 4
    frequency:     3.2687563413
  - # 5
    frequency:     4.1669461838
  - # 6
    frequency:     5.7844298314
  - # 7
    frequency:     9.0543304195
  - # 8
    frequency:     9.1987483078
  - # 9
    frequency:     9.4396684243
  - # 10
    frequency:     9.5018438439
  - # 11
    frequency:    10.1687953295
  - # 12
    frequency:    10.5165381368

- q-position: [   -0.2812500,    0.1562500,    0.0312500 ]
  distance_from_gamma:  0.074893011
  weight: 8    
  band:
  - # 1
    frequency:     1.6666595827
  - # 2
    frequency:     1.6928900838
  - # 3
    frequency:     2.3096323643
  - # 4
    frequency:     3.1236665368
  - # 5
    frequency:     3.6014871386
  - # 6
    frequency:     5.7392163170
  - # 7
    frequency:     8.9347561502
  - # 8
    frequency:     9.1272385966
  - # 9
    frequency:     9.3339366650
  - # 10
    frequency:     9.3636620723
  - # 11
    frequency:     9.9201665229
  - # 12
    frequency:    10.5204377560

- q-position: [   -0.2187500,    0.1562500,    0.0312500 ]
  distance_from_gamma:  0.059960556
  weight: 8    
  band:
  - # 1
    frequency:     1.2806869285
  - # 2
    frequency:     1.3369883876
  - # 3
    frequency:     2.1475524586
  - # 4
    frequency:     2.8549338186
  - # 5
    frequency:     3.0656398241
  - # 6
    frequency:     5.7506456963
  - # 7
    frequency:     8.8386983218
  - # 8
    frequency:     8.9978141836
  - # 9
    frequency:     9.2442412912
  - # 10
    frequency:     9.2708262520
  - # 11
    frequency:     9.6438382244
  - # 12
    frequency:    10.5179525405

- q-position: [   -0.1562500,    0.1562500,    0.0312500 ]
  distance_from_gamma:  0.048102245
  weight: 4    
  band:
  - # 1
    frequency:     0.9718733908
  - # 2
    frequency:     1.0642925175
  - # 3
    frequency:     2.0715220496
  - # 4
    frequency:     2.4101561945
  - # 5
    frequency:     2.7215770460
  - # 6
    frequency:     5.7875019500
  - # 7
    frequency:     8.7747868262
  - # 8
    frequency:     8.9108631554
  - # 9
    frequency:     9.1763153970
  - # 10
    frequency:     9.1924850038
  - # 11
    frequency:     9.4030635162
  - # 12
    frequency:    10.5132644114

- q-position: [    0.2187500,    0.2187500,    0.0312500 ]
  distance_from_gamma:  0.116106330
  weight: 4    
  band:
  - # 1
    frequency:     2.4513787763
  - # 2
    frequency:     2.5189707324
  - # 3
    frequency:     2.8435027567
  - # 4
    frequency:     3.2844112386
  - # 5
    frequency:     4.8146947911
  - # 6
    frequency:     5.8804537690
  - # 7
    frequency:     9.2084011456
  - # 8
    frequency:     9.2253772460
  - # 9
    frequency:     9.6504670630
  - # 10
    frequency:     9.6710528580
  - # 11
    frequency:    10.4178984850
  - # 12
    frequency:    10.4605822398

- q-position: [    0.2812500,    0.2187500,    0.0312500 ]
  distance_from_gamma:  0.133008018
  weight: 8    
  band:
  - # 1
    frequency:     2.6775973984
  - # 2
    frequency:     2.7527880756
  - # 3
    frequency:     3.0256927284
  - # 4
    frequency:     3.2461173943
  - # 5
    frequency:     5.1498565149
  - # 6
    frequency:     5.8987156952
  - # 7
    frequency:     9.1979890110
  - # 8
    frequency:     9.2962992488
  - # 9
    frequency:     9.6781139073
  - # 10
    frequency:     9.8575927252
  - # 11
    frequency:    10.3619685228
  - # 12
    frequency:    10.5483069057

- q-position: [    0.3437500,    0.2187500,    0.0312500 ]
  distance_from_gamma:  0.150445467
  weight: 8    
  band:
  - # 1
    frequency:     2.8397303823
  - # 2
    frequency:     2.8842059140
  - # 3
    frequency:     3.0614288127
  - # 4
    frequency:     3.2653727013
  - # 5
    frequency:     5.4041180714
  - # 6
    frequency:     5.8659088777
  - # 7
    frequency:     9.2095814433
  - # 8
    frequency:     9.2972241457
  - # 9
    frequency:     9.6996472351
  - # 10
    frequency:    10.0238969487
  - # 11
    frequency:    10.2410423666
  - # 12
    frequency:    10.6267076736

- q-position: [   -0.5937500,    0.2187500,    0.0312500 ]
  distance_from_gamma:  0.159310346
  weight: 8    
  band:
  - # 1
    frequency:     2.8796515507
  - # 2
    frequency:     2.9198329885
  - # 3
    frequency:     3.0398278968
  - # 4
    frequency:     3.2823323083
  - # 5
    frequency:     5.4711230117
  - # 6
    frequency:     5.8456611596
  - # 7
    frequency:     9.2204237837
  - # 8
    frequency:     9.2845340349
  - # 9
    frequency:     9.7076211343
  - # 10
    frequency:    10.0956683477
  - # 11
    frequency:    10.1765575163
  - # 12
    frequency:    10.6431948756

- q-position: [   -0.5312500,    0.2187500,    0.0312500 ]
  distance_from_gamma:  0.141671995
  weight: 8    
  band:
  - # 1
    frequency:     2.7683175427
  - # 2
    frequency:     2.8301817639
  - # 3
    frequency:     3.0656851389
  - # 4
    frequency:     3.2459659226
  - # 5
    frequency:     5.2914008649
  - # 6
    frequency:     5.8876457151
  - # 7
    frequency:     9.2005313273
  - # 8
    frequency:     9.3049361741
  - # 9
    frequency:     9.6881878370
  - # 10
    frequency:     9.9442747783
  - # 11
    frequency:    10.3040331193
  - # 12
    frequency:    10.5945345297

- q-position: [   -0.4687500,    0.2187500,    0.0312500 ]
  distance_from_gamma:  0.124476402
  weight: 8    
  band:
  - # 1
    frequency:     2.5715720346
  - # 2
    frequency:     2.6490801252
  - # 3
    frequency:     2.9458528518
  - # 4
    frequency:     3.2636323464
  - # 5
    frequency:     4.9890334629
  - # 6
    frequency:     5.8958754454
  - # 7
    frequency:     9.2016537826
  - # 8
    frequency:     9.2683625118
  - # 9
    frequency:     9.6690787600
  - # 10
    frequency:     9.7642201472
  - # 11
    frequency:    10.4123876448
  - # 12
    frequency:    10.4908321886

- q-position: [   -0.4062500,    0.2187500,    0.0312500 ]
  distance_from_gamma:  0.107935388