# Thermal properties / unit cell (natom)

unit:
  temperature:   K
  free_energy:   kJ/mol
  entropy:       J/K/mol
  heat_capacity: J/K/mol

natom: 4    
cutoff_frequency: 0.00000
num_modes: 49152
num_integrated_modes: 49152

zero_point_energy:      15.7033339

thermal_properties:
- temperature:         0.0000000
  free_energy:        15.7033339
  entropy:             0.0000000
  heat_capacity:       0.0000000
  energy:             15.7033339

- temperature:        10.0000000
  free_energy:        15.7030724
  entropy:             0.1074270
  heat_capacity:       0.3509172
  energy:             15.7041467

- temperature:        20.0000000
  free_energy:        15.6978538
  entropy:             1.2423089
  heat_capacity:       4.2660234
  energy:             15.7226999

- temperature:        30.0000000
  free_energy:        15.6715078
  entropy:             4.3134338
  heat_capacity:      11.5333165
  energy:             15.8009108

- temperature:        40.0000000
  free_energy:        15.6075254
  entropy:             8.6128388
  heat_capacity:      18.5287228
  energy:             15.9520390

- temperature:        50.0000000
  free_energy:        15.4976296
  entropy:            13.4130956
  heat_capacity:      24.5891974
  energy:             16.1682844

- temperature:        60.0000000
  free_energy:        15.3387060
  entropy:            18.3872119
  heat_capacity:      30.0796628
  energy:             16.4419387

- temperature:        70.0000000
  free_energy:        15.1296992
  entropy:            23.4193503
  heat_capacity:      35.3152333
  energy:             16.7690537

- temperature:        80.0000000
  free_energy:        14.8702632
  entropy:            28.4686731
  heat_capacity:      40.4005917
  energy:             17.1477571

- temperature:        90.0000000
  free_energy:        14.5603436
  entropy:            33.5126205
  heat_capacity:      45.3089256
  energy:             17.5764795

- temperature:       100.0000000
  free_energy:        14.2000987
  entropy:            38.5301640
  heat_capacity:      49.9715124
  energy:             18.0531151

- temperature:       110.0000000
  free_energy:        13.7899000
  entropy:            43.4998543
  heat_capacity:      54.3272558
  energy:             18.5748840

- temperature:       120.0000000
  free_energy:        13.3303287
  entropy:            48.4015321
  heat_capacity:      58.3395252
  energy:             19.1385126

- temperature:       130.0000000
  free_energy:        12.8221540
  entropy:            53.2179474
  heat_capacity:      61.9962177
  energy:             19.7404872

- temperature:       140.0000000
  free_energy:        12.2662997
  entropy:            57.9355171
  heat_capacity:      65.3038491
  energy:             20.3772721

- temperature:       150.0000000
  free_energy:        11.6638064
  entropy:            62.5443679
  heat_capacity:      68.2809314
  energy:             21.0454616

- temperature:       160.0000000
  free_energy:        11.0157968
  entropy:            67.0379715
  heat_capacity:      70.9525594
  energy:             21.7418722

- temperature:       170.0000000
  free_energy:        10.3234438
  entropy:            71.4126094
  heat_capacity:      73.3465734
  energy:             22.4635874

- temperature:       180.0000000
  free_energy:         9.5879462
  entropy:            75.6668106
  heat_capacity:      75.4910822
  energy:             23.2079721

- temperature:       190.0000000
  free_energy:         8.8105083
  entropy:            79.8008367
  heat_capacity:      77.4129961
  energy:             23.9726673

- temperature:       200.0000000
  free_energy:         7.9923250
  entropy:            83.8162422
  heat_capacity:      79.1372471
  energy:             24.7555734

- temperature:       210.0000000
  free_energy:         7.1345707
  entropy:            87.7155160
  heat_capacity:      80.6864514
  energy:             25.5548290

- temperature:       220.0000000
  free_energy:         6.2383914
  entropy:            91.5017969
  heat_capacity:      82.0808414
  energy:             26.3687867

- temperature:       230.0000000
  free_energy:         5.3048995
  entropy:            95.1786536
  heat_capacity:      83.3383513
  energy:             27.1959898

- temperature:       240.0000000
  free_energy:         4.3351703
  entropy:            98.7499168
  heat_capacity:      84.4747834
  energy:             28.0351503

- temperature:       250.0000000
  free_energy:         3.3302399
  entropy:           102.2195536
  heat_capacity:      85.5040104
  energy:             28.8851283

- temperature:       260.0000000
  free_energy:         2.2911046
  entropy:           105.5915741
  heat_capacity:      86.4381852
  energy:             29.7449139

- temperature:       270.0000000
  free_energy:         1.2187205
  entropy:           108.8699639
  heat_capacity:      87.2879439
  energy:             30.6136108

- temperature:       280.0000000
  free_energy:         0.1140044
  entropy:           112.0586362
  heat_capacity:      88.0625947
  energy:             31.4904225

- temperature:       290.0000000
  free_energy:        -1.0221658
  entropy:           115.1613981
  heat_capacity:      88.7702875
  energy:             32.3746396

- temperature:       300.0000000
  free_energy:        -2.1889495
  entropy:           118.1819283
  heat_capacity:      89.4181656
  energy:             33.2656290

- temperature:       310.0000000
  free_energy:        -3.3855421
  entropy:           121.1237633
  heat_capacity:      90.0124979
  energy:             34.1628245

- temperature:       320.0000000
  free_energy:        -4.6111738
  entropy:           123.9902895
  heat_capacity:      90.5587950
  energy:             35.0657189

- temperature:       330.0000000
  free_energy:        -5.8651077
  entropy:           126.7847400
  heat_capacity:      91.0619089
  energy:             35.9738565

- temperature:       340.0000000
  free_energy:        -7.1466386
  entropy:           129.5101942
  heat_capacity:      91.5261201
  energy:             36.8868275

- temperature:       350.0000000
  free_energy:        -8.4550913
  entropy:           132.1695807
  heat_capacity:      91.9552122
  energy:             37.8042619

- temperature:       360.0000000
  free_energy:        -9.7898193
  entropy:           134.7656808
  heat_capacity:      92.3525359
  energy:             38.7258258

- temperature:       370.0000000
  free_energy:       -11.1502028
  entropy:           137.3011338
  heat_capacity:      92.7210652
  energy:             39.6512167

- temperature:       380.0000000
  free_energy:       -12.5356481
  entropy:           139.7784425
  heat_capacity:      93.0634444
  energy:             40.5801600

- temperature:       390.0000000
  free_energy:       -13.9455858
  entropy:           142.1999797
  heat_capacity:      93.3820300
  energy:             41.5124063

- temperature:       400.0000000
  free_energy:       -15.3794693
  entropy:           144.5679942
  heat_capacity:      93.6789260
  energy:             42.4477283

- temperature:       410.0000000
  free_energy:       -16.8367744
  entropy:           146.8846175
  heat_capacity:      93.9560146
  energy:             43.3859188

- temperature:       420.0000000
  free_energy:       -18.3169971
  entropy:           149.1518699
  heat_capacity:      94.2149830
  energy:             44.3267882

- temperature:       430.0000000
  free_energy:       -19.8196536
  entropy:           151.3716668
  heat_capacity:      94.4573466
  energy:             45.2701631

- temperature:       440.0000000
  free_energy:       -21.3442783
  entropy:           153.5458244
  heat_capacity:      94.6844688
  energy:             46.2158844

- temperature:       450.0000000
  free_energy:       -22.8904237
  entropy:           155.6760656
  heat_capacity:      94.8975788
  energy:             47.1638058

- temperature:       460.0000000
  free_energy:       -24.4576587
  entropy:           157.7640254
  heat_capacity:      95.0977866
  energy:             48.1137930

- temperature:       470.0000000
  free_energy:       -26.0455684
  entropy:           159.8112561
  heat_capacity:      95.2860963
  energy:             49.0657219

- temperature:       480.0000000
  free_energy:       -27.6537530
  entropy:           161.8192318
  heat_capacity:      95.4634179
  energy:             50.0194783

- temperature:       490.0000000
  free_energy:       -29.2818269
  entropy:           163.7893537
  heat_capacity:      95.6305776
  energy:             50.9749564

- temperature:       500.0000000
  free_energy:       -30.9294183
  entropy:           165.7229536
  heat_capacity:      95.7883263
  energy:             51.9320585

- temperature:       510.0000000
  free_energy:       -32.5961685
  entropy:           167.6212987
  heat_capacity:      95.9373479
  energy:             52.8906938

- temperature:       520.0000000
  free_energy:       -34.2817308
  entropy:           169.4855947
  heat_capacity:      96.0782663
  energy:             53.8507784

- temperature:       530.0000000
  free_energy:       -35.9857707
  entropy:           171.3169901
  heat_capacity:      96.2116511
  energy:             54.8122341

- temperature:       540.0000000
  free_energy:       -37.7079646
  entropy:           173.1165790
  heat_capacity:      96.3380237
  energy:             55.7749881

- temperature:       550.0000000
  free_energy:       -39.4479997
  entropy:           174.8854045
  heat_capacity:      96.4578614
  energy:             56.7389728

- temperature:       560.0000000
  free_energy:       -41.2055735
  entropy:           176.6244615
  heat_capacity:      96.5716022
  energy:             57.7041250

- temperature:       570.0000000
  free_energy:       -42.9803929
  entropy:           178.3346995
  heat_capacity:      96.6796485
  energy:             58.6703858

- temperature:       580.0000000
  free_energy:       -44.7721744
  entropy:           180.0170252
  heat_capacity:      96.7823702
  energy:             59.6377002

- temperature:       590.0000000
  free_energy:       -46.5806433
  entropy:           181.6723049
  heat_capacity:      96.8801081
  energy:             60.6060166

- temperature:       600.0000000
  free_energy:       -48.4055331
  entropy:           183.3013666
  heat_capacity:      96.9731764
  energy:             61.5752868

- temperature:       610.0000000
  free_energy:       -50.2465859
  entropy:           184.9050023
  heat_capacity:      97.0618652
  energy:             62.5454655

- temperature:       620.0000000
  free_energy:       -52.1035510
  entropy:           186.4839700
  heat_capacity:      97.1464426
  energy:             63.5165104

- temperature:       630.0000000
  free_energy:       -53.9761855
  entropy:           188.0389952
  heat_capacity:      97.2271566
  energy:             64.4883815

- temperature:       640.0000000
  free_energy:       -55.8642534
  entropy:           189.5707731
  heat_capacity:      97.3042371
  energy:             65.4610414

- temperature:       650.0000000
  free_energy:       -57.7675256
  entropy:           191.0799700
  heat_capacity:      97.3778972
  energy:             66.4344549

- temperature:       660.0000000
  free_energy:       -59.6857796
  entropy:           192.5672247
  heat_capacity:      97.4483347
  energy:             67.4085886

- temperature:       670.0000000
  free_energy:       -61.6187990
  entropy:           194.0331500
  heat_capacity:      97.5157335
  energy:             68.3834114

- temperature:       680.0000000
  free_energy:       -63.5663735
  entropy:           195.4783342
  heat_capacity:      97.5802647
  energy:             69.3588937

- temperature:       690.0000000
  free_energy:       -65.5282985
  entropy:           196.9033423
  heat_capacity:      97.6420874
  energy:             70.3350077

- temperature:       700.0000000
  free_energy:       -67.5043749
  entropy:           198.3087170
  heat_capacity:      97.7013501
  energy:             71.3117270

- temperature:       710.0000000
  free_energy:       -69.4944091
  entropy:           199.6949799
  heat_capacity:      97.7581913
  energy:             72.2890266

- temperature:       720.0000000
  free_energy:       -71.4982125
  entropy:           201.0626328
  heat_capacity:      97.8127403
  energy:             73.2668831

- temperature:       730.0000000
  free_energy:       -73.5156013
  entropy:           202.4121583
  heat_capacity:      97.8651179
  energy:             74.2452742

- temperature:       740.0000000
  free_energy:       -75.5463968
  entropy:           203.7440208
  heat_capacity:      97.9154372
  energy:             75.2241786

- temperature:       750.0000000
  free_energy:       -77.5904244
  entropy:           205.0586678
  heat_capacity:      97.9638039
  energy:             76.2035764

- temperature:       760.0000000
  free_energy:       -79.6475142
  entropy:           206.3565299
  heat_capacity:      98.0103172
  energy:             77.1834485

- temperature:       770.0000000
  free_energy:       -81.7175004
  entropy:           207.6380225
  heat_capacity:      98.0550701
  energy:             78.1637769

- temperature:       780.0000000
  free_energy:       -83.8002214
  entropy:           208.9035459
  heat_capacity:      98.0981497
  energy:             79.1445444

- temperature:       790.0000000
  free_energy:       -85.8955194
  entropy:           210.1534861
  heat_capacity:      98.1396382
  energy:             80.1257346

- temperature:       800.0000000
  free_energy:       -88.0032404
  entropy:           211.3882156
  heat_capacity:      98.1796123
  energy:             81.1073321

- temperature:       810.0000000
  free_energy:       -90.1232342
  entropy:           212.6080941
  heat_capacity:      98.2181447
  energy:             82.0893220

- temperature:       820.0000000
  free_energy:       -92.2553540
  entropy:           213.8134687
  heat_capacity:      98.2553034
  energy:             83.0716904

- temperature:       830.0000000
  free_energy:       -94.3994563
  entropy:           215.0046748
  heat_capacity:      98.2911526
  energy:             84.0544237

- temperature:       840.0000000
  free_energy:       -96.5554013
  entropy:           216.1820364
  heat_capacity:      98.3257529
  energy:             85.0375093

- temperature:       850.0000000
  free_energy:       -98.7230520
  entropy:           217.3458668
  heat_capacity:      98.3591614
  energy:             86.0209348

- temperature:       860.0000000
  free_energy:      -100.9022746
  entropy:           218.4964689
  heat_capacity:      98.3914319
  energy:             87.0046887

- temperature:       870.0000000
  free_energy:      -103.0929382
  entropy:           219.6341357
  heat_capacity:      98.4226154
  energy:             87.9887598

- temperature:       880.0000000
  free_energy:      -105.2949151
  entropy:           220.7591508
  heat_capacity:      98.4527597
  energy:             88.9731376

- temperature:       890.0000000
  free_energy:      -107.5080800
  entropy:           221.8717885
  heat_capacity:      98.4819106
  energy:             89.9578117

- temperature:       900.0000000
  free_energy:      -109.7323105
  entropy:           222.9723146
  heat_capacity:      98.5101108
  energy:             90.9427726

- temperature:       910.0000000
  free_energy:      -111.9674868
  entropy:           224.0609865
  heat_capacity:      98.5374013
  energy:             91.9280109

- temperature:       920.0000000
  free_energy:      -114.2134915
  entropy:           225.1380536
  heat_capacity:      98.5638204
  energy:             92.9135177

- temperature:       930.0000000
  free_energy:      -116.4702100
  entropy:           226.2037575
  heat_capacity:      98.5894049
  energy:             93.8992845

- temperature:       940.0000000
  free_energy:      -118.7375296
  entropy:           227.2583327
  heat_capacity:      98.6141893
  energy:             94.8853032

- temperature:       950.0000000
  free_energy:      -121.0153403
  entropy:           228.3020064
  heat_capacity:      98.6382065
  energy:             95.8715658

- temperature:       960.0000000
  free_energy:      -123.3035341
  entropy:           229.3349989
  heat_capacity:      98.6614879
  energy:             96.8580648

- temperature:       970.0000000
  free_energy:      -125.6020054
  entropy:           230.3575243
  heat_capacity:      98.6840629
  energy:             97.8447932

- temperature:       980.0000000
  free_energy:      -127.9106504
  entropy:           231.3697900
  heat_capacity:      98.7059598
  energy:             98.8317438

- temperature:       990.0000000
  free_energy:      -130.2293676
  entropy:           232.3719978
  heat_capacity:      98.7272055
  energy:             99.8189102

- temperature:      1000.0000000
  free_energy:      -132.5580575
  entropy:           233.3643434
  heat_capacity:      98.7478253
  energy:            100.8062859
