nqpoint: 255    
npath: 5      
segment_nqpoint:
- 51
- 51
- 51
- 51
- 51
labels:
- [ '$Gamma$', 'A' ]
- [ 'A', 'H' ]
- [ 'H', 'K' ]
- [ 'K', 'L' ]
- [ 'L', 'M' ]
reciprocal_lattice:
- [   0.24745879,  -0.14287040,   0.00000000 ] # a*
- [   0.24745879,   0.14287040,   0.00000000 ] # b*
- [   0.00000000,   0.00000000,   0.15092652 ] # c*
natom: 4      
lattice:
- [     2.020538445425289,    -3.499675246122836,     0.000000000000000 ] # a
- [     2.020538445425289,     3.499675246122836,     0.000000000000000 ] # b
- [     0.000000000000000,     0.000000000000000,     6.625740716570513 ] # c
points:
- symbol: Zn # 1
  coordinates: [  0.333333333333336,  0.666666666666664,  0.999679552657183 ]
  mass: 65.380000
- symbol: Zn # 2
  coordinates: [  0.666666666666664,  0.333333333333336,  0.499679552657183 ]
  mass: 65.380000
- symbol: S # 3
  coordinates: [  0.333333333333336,  0.666666666666664,  0.375320447342817 ]
  mass: 32.065000
- symbol: S # 4
  coordinates: [  0.666666666666664,  0.333333333333336,  0.875320447342817 ]
  mass: 32.065000

phonon:
- q-position: [    0.0000000,    0.0000000,    0.0000000 ]
  distance:    0.0000000
  band:
  - # 1
    frequency:   -0.0000001944
  - # 2
    frequency:   -0.0000001906
  - # 3
    frequency:   -0.0000001496
  - # 4
    frequency:    2.2765303887
  - # 5
    frequency:    2.2765303887
  - # 6
    frequency:    4.7970693066
  - # 7
    frequency:    5.6658794548
  - # 8
    frequency:    6.0182117821
  - # 9
    frequency:    6.0182117821
  - # 10
    frequency:    6.0280674617
  - # 11
    frequency:    6.0280674617
  - # 12
    frequency:    7.8628927479

- q-position: [    0.0000000,    0.0000000,    0.0100000 ]
  distance:    0.0015093
  band:
  - # 1
    frequency:    0.0423274492
  - # 2
    frequency:    0.0423274492
  - # 3
    frequency:    0.0870547552
  - # 4
    frequency:    2.2763763244
  - # 5
    frequency:    2.2763763244
  - # 6
    frequency:    4.7958650259
  - # 7
    frequency:    5.6679959347
  - # 8
    frequency:    6.0181805686
  - # 9
    frequency:    6.0181805686
  - # 10
    frequency:    6.0280367686
  - # 11
    frequency:    6.0280367686
  - # 12
    frequency:    7.8639799070

- q-position: [    0.0000000,    0.0000000,    0.0200000 ]
  distance:    0.0030185
  band:
  - # 1
    frequency:    0.0846367992
  - # 2
    frequency:    0.0846367992
  - # 3
    frequency:    0.1740405085
  - # 4
    frequency:    2.2759138172
  - # 5
    frequency:    2.2759138172
  - # 6
    frequency:    4.7922624273
  - # 7
    frequency:    5.6743351706
  - # 8
    frequency:    6.0180870681
  - # 9
    frequency:    6.0180870681
  - # 10
    frequency:    6.0279447838
  - # 11
    frequency:    6.0279447838
  - # 12
    frequency:    7.8672292989

- q-position: [    0.0000000,    0.0000000,    0.0300000 ]
  distance:    0.0045278
  band:
  - # 1
    frequency:    0.1269099634
  - # 2
    frequency:    0.1269099634
  - # 3
    frequency:    0.2608885718
  - # 4
    frequency:    2.2751419255
  - # 5
    frequency:    2.2751419255
  - # 6
    frequency:    4.7862919466
  - # 7
    frequency:    5.6848666721
  - # 8
    frequency:    6.0179317008
  - # 9
    frequency:    6.0179317008
  - # 10
    frequency:    6.0277917908
  - # 11
    frequency:    6.0277917908
  - # 12
    frequency:    7.8726049609

- q-position: [    0.0000000,    0.0000000,    0.0400000 ]
  distance:    0.0060371
  band:
  - # 1
    frequency:    0.1691288801
  - # 2
    frequency:    0.1691288801
  - # 3
    frequency:    0.3475308789
  - # 4
    frequency:    2.2740590844
  - # 5
    frequency:    2.2740590844
  - # 6
    frequency:    4.7780033456
  - # 7
    frequency:    5.6995400239
  - # 8
    frequency:    6.0177151645
  - # 9
    frequency:    6.0177151645
  - # 10
    frequency:    6.0275782615
  - # 11
    frequency:    6.0275782615
  - # 12
    frequency:    7.8800479151

- q-position: [    0.0000000,    0.0000000,    0.0500000 ]
  distance:    0.0075463
  band:
  - # 1
    frequency:    0.2112755253
  - # 2
    frequency:    0.2112755253
  - # 3
    frequency:    0.4339002815
  - # 4
    frequency:    2.2726631116
  - # 5
    frequency:    2.2726631116
  - # 6
    frequency:    4.7674643274
  - # 7
    frequency:    5.7182854773
  - # 8
    frequency:    6.0174384326
  - # 9
    frequency:    6.0174384326
  - # 10
    frequency:    6.0273048551
  - # 11
    frequency:    6.0273048551
  - # 12
    frequency:    7.8894775469

- q-position: [    0.0000000,    0.0000000,    0.0600000 ]
  distance:    0.0090556
  band:
  - # 1
    frequency:    0.2533319249
  - # 2
    frequency:    0.2533319249
  - # 3
    frequency:    0.5199308290
  - # 4
    frequency:    2.2709512167
  - # 5
    frequency:    2.2709512167
  - # 6
    frequency:    4.7547587120
  - # 7
    frequency:    5.7410147549
  - # 8
    frequency:    6.0171027493
  - # 9
    frequency:    6.0171027493
  - # 10
    frequency:    6.0269724168
  - # 11
    frequency:    6.0269724168
  - # 12
    frequency:    7.9007934210

- q-position: [    0.0000000,    0.0000000,    0.0700000 ]
  distance:    0.0105649
  band:
  - # 1
    frequency:    0.2952801678
  - # 2
    frequency:    0.2952801678
  - # 3
    frequency:    0.6055580274
  - # 4
    frequency:    2.2689200123
  - # 5
    frequency:    2.2689200123
  - # 6
    frequency:    4.7399842749
  - # 7
    frequency:    5.7676220470
  - # 8
    frequency:    6.0167096251
  - # 9
    frequency:    6.0167096251
  - # 10
    frequency:    6.0265819760
  - # 11
    frequency:    6.0265819760
  - # 12
    frequency:    7.9138774344

- q-position: [    0.0000000,    0.0000000,    0.0800000 ]
  distance:    0.0120741
  band:
  - # 1
    frequency:    0.3371024186
  - # 2
    frequency:    0.3371024186
  - # 3
    frequency:    0.6907190734
  - # 4
    frequency:    2.2665655277
  - # 5
    frequency:    2.2665655277
  - # 6
    frequency:    4.7232503579
  - # 7
    frequency:    5.7979851755
  - # 8
    frequency:    6.0162608298
  - # 9
    frequency:    6.0162608298
  - # 10
    frequency:    6.0261347440
  - # 11
    frequency:    6.0261347440
  - # 12
    frequency:    7.9285961958

- q-position: [    0.0000000,    0.0000000,    0.0900000 ]
  distance:    0.0135834
  band:
  - # 1
    frequency:    0.3787809303
  - # 2
    frequency:    0.3787809303
  - # 3
    frequency:    0.7753530612
  - # 4
    frequency:    2.2638832250
  - # 5
    frequency:    2.2638832250
  - # 6
    frequency:    4.7046753636
  - # 7
    frequency:    5.8319668933
  - # 8
    frequency:    6.0157583857
  - # 9
    frequency:    6.0157583857
  - # 10
    frequency:    6.0256321116
  - # 11
    frequency:    6.0256321116
  - # 12
    frequency:    7.9448035238

- q-position: [    0.0000000,    0.0000000,    0.1000000 ]
  distance:    0.0150927
  band:
  - # 1
    frequency:    0.4202980574
  - # 2
    frequency:    0.4202980574
  - # 3
    frequency:    0.8594011624
  - # 4
    frequency:    2.2608680176
  - # 5
    frequency:    2.2608680176
  - # 6
    frequency:    4.6843842383
  - # 7
    frequency:    5.8694162914
  - # 8
    frequency:    6.0152045588
  - # 9
    frequency:    6.0152045588
  - # 10
    frequency:    6.0250756458
  - # 11
    frequency:    6.0250756458
  - # 12
    frequency:    7.9623429588

- q-position: [    0.0000000,    0.0000000,    0.1100000 ]
  distance:    0.0166019
  band:
  - # 1
    frequency:    0.4616362691
  - # 2
    frequency:    0.4616362691
  - # 3
    frequency:    0.9428067756
  - # 4
    frequency:    2.2575142909
  - # 5
    frequency:    2.2575142909
  - # 6
    frequency:    4.6625060302
  - # 7
    frequency:    5.9101702809
  - # 8
    frequency:    6.0146018494
  - # 9
    frequency:    6.0146018494
  - # 10
    frequency:    6.0244670866
  - # 11
    frequency:    6.0244670866
  - # 12
    frequency:    7.9810502036

- q-position: [    0.0000000,    0.0000000,    0.1200000 ]
  distance:    0.0181112
  band:
  - # 1
    frequency:    0.5027781623
  - # 2
    frequency:    0.5027781623
  - # 3
    frequency:    1.0255156495
  - # 4
    frequency:    2.2538159248
  - # 5
    frequency:    2.2538159248
  - # 6
    frequency:    4.6391715963
  - # 7
    frequency:    5.9540551194
  - # 8
    frequency:    6.0139529813
  - # 9
    frequency:    6.0139529813
  - # 10
    frequency:    6.0238083428
  - # 11
    frequency:    6.0238083428
  - # 12
    frequency:    8.0007554212

- q-position: [    0.0000000,    0.0000000,    0.1300000 ]
  distance:    0.0196204
  band:
  - # 1
    frequency:    0.5437064757
  - # 2
    frequency:    0.5437064757
  - # 3
    frequency:    1.1074759785
  - # 4
    frequency:    2.2497663191
  - # 5
    frequency:    2.2497663191
  - # 6
    frequency:    4.6145115090
  - # 7
    frequency:    6.0008879533
  - # 8
    frequency:    6.0132608903
  - # 9
    frequency:    6.0132608903
  - # 10
    frequency:    6.0231014880
  - # 11
    frequency:    6.0231014880
  - # 12
    frequency:    8.0212853404

- q-position: [    0.0000000,    0.0000000,    0.1400000 ]
  distance:    0.0211297
  band:
  - # 1
    frequency:    0.5844041030
  - # 2
    frequency:    0.5844041030
  - # 3
    frequency:    1.1886384752
  - # 4
    frequency:    2.2453584199
  - # 5
    frequency:    2.2453584199
  - # 6
    frequency:    4.5886541953
  - # 7
    frequency:    6.0125287118
  - # 8
    frequency:    6.0125287118
  - # 9
    frequency:    6.0223487554
  - # 10
    frequency:    6.0223487554
  - # 11
    frequency:    6.0504783481
  - # 12
    frequency:    8.0424651381

- q-position: [    0.0000000,    0.0000000,    0.1500000 ]
  distance:    0.0226390
  band:
  - # 1
    frequency:    0.6248541066
  - # 2
    frequency:    0.6248541066
  - # 3
    frequency:    1.2689564206
  - # 4
    frequency:    2.2405847483
  - # 5
    frequency:    2.2405847483
  - # 6
    frequency:    4.5617243271
  - # 7
    frequency:    6.0117597671
  - # 8
    frequency:    6.0117597671
  - # 9
    frequency:    6.0215525330
  - # 10
    frequency:    6.0215525330
  - # 11
    frequency:    6.1026297854
  - # 12
    frequency:    8.0641200812

- q-position: [    0.0000000,    0.0000000,    0.1600000 ]
  distance:    0.0241482
  band:
  - # 1
    frequency:    0.6650397322
  - # 2
    frequency:    0.6650397322
  - # 3
    frequency:    1.3483856964
  - # 4
    frequency:    2.2354374313
  - # 5
    frequency:    2.2354374313
  - # 6
    frequency:    4.5338414630
  - # 7
    frequency:    6.0109575488
  - # 8
    frequency:    6.0109575488
  - # 9
    frequency:    6.0207153574
  - # 10
    frequency:    6.0207153574
  - # 11
    frequency:    6.1571411040
  - # 12
    frequency:    8.0860769307

- q-position: [    0.0000000,    0.0000000,    0.1700000 ]
  distance:    0.0256575
  band:
  - # 1
    frequency:    0.7049444227
  - # 2
    frequency:    0.7049444227
  - # 3
    frequency:    1.4268848024
  - # 4
    frequency:    2.2299082335
  - # 5
    frequency:    2.2299082335
  - # 6
    frequency:    4.5051189363
  - # 7
    frequency:    6.0101257061
  - # 8
    frequency:    6.0101257061
  - # 9
    frequency:    6.0198399077
  - # 10
    frequency:    6.0198399077
  - # 11
    frequency:    6.2138078711
  - # 12
    frequency:    8.1081651135

- q-position: [    0.0000000,    0.0000000,    0.1800000 ]
  distance:    0.0271668
  band:
  - # 1
    frequency:    0.7445518328
  - # 2
    frequency:    0.7445518328
  - # 3
    frequency:    1.5044148617
  - # 4
    frequency:    2.2239885910
  - # 5
    frequency:    2.2239885910
  - # 6
    frequency:    4.4756629724
  - # 7
    frequency:    6.0092680284
  - # 8
    frequency:    6.0092680284
  - # 9
    frequency:    6.0189289989
  - # 10
    frequency:    6.0189289989
  - # 11
    frequency:    6.2724236690
  - # 12
    frequency:    8.1302176816

- q-position: [    0.0000000,    0.0000000,    0.1900000 ]
  distance:    0.0286760
  band:
  - # 1
    frequency:    0.7838458436
  - # 2
    frequency:    0.7838458436
  - # 3
    frequency:    1.5809396179
  - # 4
    frequency:    2.2176696460
  - # 5
    frequency:    2.2176696460
  - # 6
    frequency:    4.4455720173
  - # 7
    frequency:    6.0083884285
  - # 8
    frequency:    6.0083884285
  - # 9
    frequency:    6.0179855747
  - # 10
    frequency:    6.0179855747
  - # 11
    frequency:    6.3327812893
  - # 12
    frequency:    8.1520720783

- q-position: [    0.0000000,    0.0000000,    0.2000000 ]
  distance:    0.0301853
  band:
  - # 1
    frequency:    0.8228105779
  - # 2
    frequency:    0.8228105779
  - # 3
    frequency:    1.6564254261
  - # 4
    frequency:    2.2109422833
  - # 5
    frequency:    2.2109422833
  - # 6
    frequency:    4.4149362539
  - # 7
    frequency:    6.0074909256
  - # 8
    frequency:    6.0074909256
  - # 9
    frequency:    6.0170126995
  - # 10
    frequency:    6.0170126995
  - # 11
    frequency:    6.3946738287
  - # 12
    frequency:    8.1735707359

- q-position: [    0.0000000,    0.0000000,    0.2100000 ]
  distance:    0.0316946
  band:
  - # 1
    frequency:    0.8614304149
  - # 2
    frequency:    0.8614304149
  - # 3
    frequency:    1.7308412408
  - # 4
    frequency:    2.2037971675
  - # 5
    frequency:    2.2037971675
  - # 6
    frequency:    4.3838372839
  - # 7
    frequency:    6.0065796271
  - # 8
    frequency:    6.0065796271
  - # 9
    frequency:    6.0160135505
  - # 10
    frequency:    6.0160135505
  - # 11
    frequency:    6.4578956830
  - # 12
    frequency:    8.1945615283

- q-position: [    0.0000000,    0.0000000,    0.2200000 ]
  distance:    0.0332038
  band:
  - # 1
    frequency:    0.8996900062
  - # 2
    frequency:    0.8996900062
  - # 3
    frequency:    1.8041586030
  - # 4
    frequency:    2.1962247812
  - # 5
    frequency:    2.1962247812
  - # 6
    frequency:    4.3523479529
  - # 7
    frequency:    6.0056587099
  - # 8
    frequency:    6.0056587099
  - # 9
    frequency:    6.0149914087
  - # 10
    frequency:    6.0149914087
  - # 11
    frequency:    6.5222434393
  - # 12
    frequency:    8.2148981024

- q-position: [    0.0000000,    0.0000000,    0.2300000 ]
  distance:    0.0347131
  band:
  - # 1
    frequency:    0.9375742908
  - # 2
    frequency:    0.9375742908
  - # 3
    frequency:    1.8763516280
  - # 4
    frequency:    2.1882154638
  - # 5
    frequency:    2.1882154638
  - # 6
    frequency:    4.3205322981
  - # 7
    frequency:    6.0047324021
  - # 8
    frequency:    6.0047324021
  - # 9
    frequency:    6.0139496496
  - # 10
    frequency:    6.0139496496
  - # 11
    frequency:    6.5875166684
  - # 12
    frequency:    8.2344401089

- q-position: [    0.0000000,    0.0000000,    0.2400000 ]
  distance:    0.0362224
  band:
  - # 1
    frequency:    0.9750685112
  - # 2
    frequency:    0.9750685112
  - # 3
    frequency:    1.9473969956
  - # 4
    frequency:    2.1797594511
  - # 5
    frequency:    2.1797594511
  - # 6
    frequency:    4.2884455995
  - # 7
    frequency:    6.0038049633
  - # 8
    frequency:    6.0038049633
  - # 9
    frequency:    6.0128917339
  - # 10
    frequency:    6.0128917339
  - # 11
    frequency:    6.6535186204
  - # 12
    frequency:    8.2530533525

- q-position: [    0.0000000,    0.0000000,    0.2500000 ]
  distance:    0.0377316
  band:
  - # 1
    frequency:    1.0121582297
  - # 2
    frequency:    1.0121582297
  - # 3
    frequency:    2.0172739425
  - # 4
    frequency:    2.1708469154
  - # 5
    frequency:    2.1708469154
  - # 6
    frequency:    4.2561345183
  - # 7
    frequency:    6.0028806652
  - # 8
    frequency:    6.0028806652
  - # 9
    frequency:    6.0118211966
  - # 10
    frequency:    6.0118211966
  - # 11
    frequency:    6.7200568289
  - # 12
    frequency:    8.2706098784

- q-position: [    0.0000000,    0.0000000,    0.2600000 ]
  distance:    0.0392409
  band:
  - # 1
    frequency:    1.0488293441
  - # 2
    frequency:    1.0488293441
  - # 3
    frequency:    2.0859642590
  - # 4
    frequency:    2.1614680056
  - # 5
    frequency:    2.1614680056
  - # 6
    frequency:    4.2236373070
  - # 7
    frequency:    6.0019637724
  - # 8
    frequency:    6.0019637724
  - # 9
    frequency:    6.0107416365
  - # 10
    frequency:    6.0107416365
  - # 11
    frequency:    6.7869436295
  - # 12
    frequency:    8.2869880097

- q-position: [    0.0000000,    0.0000000,    0.2700000 ]
  distance:    0.0407502
  band:
  - # 1
    frequency:    1.0850681044
  - # 2
    frequency:    1.0850681044
  - # 3
    frequency:    2.1516128876
  - # 4
    frequency:    2.1516128876
  - # 5
    frequency:    2.1534522895
  - # 6
    frequency:    4.1909840792
  - # 7
    frequency:    6.0010585220
  - # 8
    frequency:    6.0010585220
  - # 9
    frequency:    6.0096567053
  - # 10
    frequency:    6.0096567053
  - # 11
    frequency:    6.8539965987
  - # 12
    frequency:    8.3020723471

- q-position: [    0.0000000,    0.0000000,    0.2800000 ]
  distance:    0.0422594
  band:
  - # 1
    frequency:    1.1208611290
  - # 2
    frequency:    1.1208611290
  - # 3
    frequency:    2.1412717845
  - # 4
    frequency:    2.1412717845
  - # 5
    frequency:    2.2197249360
  - # 6
    frequency:    4.1581971278
  - # 7
    frequency:    6.0001691051
  - # 8
    frequency:    6.0001691051
  - # 9
    frequency:    6.0085700950
  - # 10
    frequency:    6.0085700950
  - # 11
    frequency:    6.9210389206
  - # 12
    frequency:    8.3157537429

- q-position: [    0.0000000,    0.0000000,    0.2900000 ]
  distance:    0.0437687
  band:
  - # 1
    frequency:    1.1561954215
  - # 2
    frequency:    1.1561954215
  - # 3
    frequency:    2.1304350166
  - # 4
    frequency:    2.1304350166
  - # 5
    frequency:    2.2847716654
  - # 6
    frequency:    4.1252912824
  - # 7
    frequency:    5.9992996464
  - # 8
    frequency:    5.9992996464
  - # 9
    frequency:    6.0074855267
  - # 10
    frequency:    6.0074855267
  - # 11
    frequency:    6.9878996877
  - # 12
    frequency:    8.3279292554

- q-position: [    0.0000000,    0.0000000,    0.3000000 ]
  distance:    0.0452780
  band:
  - # 1
    frequency:    1.1910583875
  - # 2
    frequency:    1.1910583875
  - # 3
    frequency:    2.1190930410
  - # 4
    frequency:    2.1190930410
  - # 5
    frequency:    2.3485845188
  - # 6
    frequency:    4.0922742978
  - # 7
    frequency:    5.9984541856
  - # 8
    frequency:    5.9984541856
  - # 9
    frequency:    6.0064067374
  - # 10
    frequency:    6.0064067374
  - # 11
    frequency:    7.0544141435
  - # 12
    frequency:    8.3385020919

- q-position: [    0.0000000,    0.0000000,    0.3100000 ]
  distance:    0.0467872
  band:
  - # 1
    frequency:    1.2254378505
  - # 2
    frequency:    1.2254378505
  - # 3
    frequency:    2.1072364905
  - # 4
    frequency:    2.1072364905
  - # 5
    frequency:    2.4111581236
  - # 6
    frequency:    4.0591472672
  - # 7
    frequency:    5.9976366587
  - # 8
    frequency:    5.9976366587
  - # 9
    frequency:    6.0053374670
  - # 10
    frequency:    6.0053374670
  - # 11
    frequency:    7.1204238726
  - # 12
    frequency:    8.3473815451

- q-position: [    0.0000000,    0.0000000,    0.3200000 ]
  distance:    0.0482965
  band:
  - # 1
    frequency:    1.2593220693
  - # 2
    frequency:    1.2593220693
  - # 3
    frequency:    2.0948562120
  - # 4
    frequency:    2.0948562120
  - # 5
    frequency:    2.4724897055
  - # 6
    frequency:    4.0259050530
  - # 7
    frequency:    5.9968508796
  - # 8
    frequency:    5.9968508796
  - # 9
    frequency:    6.0042814453
  - # 10
    frequency:    6.0042814453
  - # 11
    frequency:    7.1857769458
  - # 12
    frequency:    8.3544829269

- q-position: [    0.0000000,    0.0000000,    0.3300000 ]
  distance:    0.0498058
  band:
  - # 1
    frequency:    1.2926997543
  - # 2
    frequency:    1.2926997543
  - # 3
    frequency:    2.0819433036
  - # 4
    frequency:    2.0819433036
  - # 5
    frequency:    2.5325791013
  - # 6
    frequency:    3.9925367319
  - # 7
    frequency:    5.9961005225
  - # 8
    frequency:    5.9961005225
  - # 9
    frequency:    6.0032423780
  - # 10
    frequency:    6.0032423780
  - # 11
    frequency:    7.2503280250
  - # 12
    frequency:    8.3597275025

- q-position: [    0.0000000,    0.0000000,    0.3400000 ]
  distance:    0.0513150
  band:
  - # 1
    frequency:    1.3255600835
  - # 2
    frequency:    1.3255600835
  - # 3
    frequency:    2.0684891510
  - # 4
    frequency:    2.0684891510
  - # 5
    frequency:    2.5914287695
  - # 6
    frequency:    3.9590260478
  - # 7
    frequency:    5.9953891051
  - # 8
    frequency:    5.9953891051
  - # 9
    frequency:    6.0022239327
  - # 10
    frequency:    6.0022239327
  - # 11
    frequency:    7.3139384338
  - # 12
    frequency:    8.3630424280

- q-position: [    0.0000000,    0.0000000,    0.3500000 ]
  distance:    0.0528243
  band:
  - # 1
    frequency:    1.3578927191
  - # 2
    frequency:    1.3578927191
  - # 3
    frequency:    2.0544854627
  - # 4
    frequency:    2.0544854627
  - # 5
    frequency:    2.6490437994
  - # 6
    frequency:    3.9253518702
  - # 7
    frequency:    5.9947199722
  - # 8
    frequency:    5.9947199722
  - # 9
    frequency:    6.0012297251
  - # 10
    frequency:    6.0012297251
  - # 11
    frequency:    7.3764762000
  - # 12
    frequency:    8.3643606917

- q-position: [    0.0000000,    0.0000000,    0.3600000 ]
  distance:    0.0543335
  band:
  - # 1
    frequency:    1.3896878234
  - # 2
    frequency:    1.3896878234
  - # 3
    frequency:    2.0399243031
  - # 4
    frequency:    2.0399243031
  - # 5
    frequency:    2.7054319167
  - # 6
    frequency:    3.8914886533
  - # 7
    frequency:    5.9940962810
  - # 8
    frequency:    5.9940962810
  - # 9
    frequency:    6.0002633041
  - # 10
    frequency:    6.0002633041
  - # 11
    frequency:    7.4378160722
  - # 12
    frequency:    8.3636210625

- q-position: [    0.0000000,    0.0000000,    0.3700000 ]
  distance:    0.0558428
  band:
  - # 1
    frequency:    1.4209360740
  - # 2
    frequency:    1.4209360740
  - # 3
    frequency:    2.0247981255
  - # 4
    frequency:    2.0247981255
  - # 5
    frequency:    2.7606034833
  - # 6
    frequency:    3.8574068933
  - # 7
    frequency:    5.9935209865
  - # 8
    frequency:    5.9935209865
  - # 9
    frequency:    5.9993281376
  - # 10
    frequency:    5.9993281376
  - # 11
    frequency:    7.4978395171
  - # 12
    frequency:    8.3607680434

- q-position: [    0.0000000,    0.0000000,    0.3800000 ]
  distance:    0.0573521
  band:
  - # 1
    frequency:    1.4516286790
  - # 2
    frequency:    1.4516286790
  - # 3
    frequency:    2.0090998023
  - # 4
    frequency:    2.0090998023
  - # 5
    frequency:    2.8145714928
  - # 6
    frequency:    3.8230735808
  - # 7
    frequency:    5.9929968284
  - # 8
    frequency:    5.9929968284
  - # 9
    frequency:    5.9984275979
  - # 10
    frequency:    5.9984275979
  - # 11
    frequency:    7.5564346993
  - # 12
    frequency:    8.3557518335

- q-position: [    0.0000000,    0.0000000,    0.3900000 ]
  distance:    0.0588613
  band:
  - # 1
    frequency:    1.4817573920
  - # 2
    frequency:    1.4817573920
  - # 3
    frequency:    1.9928226539
  - # 4
    frequency:    1.9928226539
  - # 5
    frequency:    2.8673515572
  - # 6
    frequency:    3.7884526461
  - # 7
    frequency:    5.9925263193
  - # 8
    frequency:    5.9925263193
  - # 9
    frequency:    5.9975649472
  - # 10
    frequency:    5.9975649472
  - # 11
    frequency:    7.6134964476
  - # 12
    frequency:    8.3485282967

- q-position: [    0.0000000,    0.0000000,    0.4000000 ]
  distance:    0.0603706
  band:
  - # 1
    frequency:    1.5113145256
  - # 2
    frequency:    1.5113145256
  - # 3
    frequency:    1.9759604760
  - # 4
    frequency:    1.9759604760
  - # 5
    frequency:    2.9189618868
  - # 6
    frequency:    3.7535053942
  - # 7
    frequency:    5.9921117340
  - # 8
    frequency:    5.9921117340
  - # 9
    frequency:    5.9967433231
  - # 10
    frequency:    5.9967433231
  - # 11
    frequency:    7.6689262111
  - # 12
    frequency:    8.3390589376

- q-position: [    0.0000000,    0.0000000,    0.4100000 ]
  distance:    0.0618799
  band:
  - # 1
    frequency:    1.5402929648
  - # 2
    frequency:    1.5402929648
  - # 3
    frequency:    1.9585075645
  - # 4
    frequency:    1.9585075645
  - # 5
    frequency:    2.9694232592
  - # 6
    frequency:    3.7181909281
  - # 7
    frequency:    5.9917550996
  - # 8
    frequency:    5.9917550996
  - # 9
    frequency:    5.9959657241
  - # 10
    frequency:    5.9959657241
  - # 11
    frequency:    7.7226320059
  - # 12
    frequency:    8.3273108859

- q-position: [    0.0000000,    0.0000000,    0.4200000 ]
  distance:    0.0633891
  band:
  - # 1
    frequency:    1.5686861795
  - # 2
    frequency:    1.5686861795
  - # 3
    frequency:    1.9404587394
  - # 4
    frequency:    1.9404587394
  - # 5
    frequency:    3.0187589792
  - # 6
    frequency:    3.6824665591
  - # 7
    frequency:    5.9914581881
  - # 8
    frequency:    5.9914581881
  - # 9
    frequency:    5.9952349962
  - # 10
    frequency:    5.9952349962
  - # 11
    frequency:    7.7745283567
  - # 12
    frequency:    8.3132568868

- q-position: [    0.0000000,    0.0000000,    0.4300000 ]
  distance:    0.0648984
  band:
  - # 1
    frequency:    1.5964882362
  - # 2
    frequency:    1.5964882362
  - # 3
    frequency:    1.9218093656
  - # 4
    frequency:    1.9218093656
  - # 5
    frequency:    3.0669948256
  - # 6
    frequency:    3.6462882008
  - # 7
    frequency:    5.9912225089
  - # 8
    frequency:    5.9912225089
  - # 9
    frequency:    5.9945538184
  - # 10
    frequency:    5.9945538184
  - # 11
    frequency:    7.8245362333
  - # 12
    frequency:    8.2968752997

- q-position: [    0.0000000,    0.0000000,    0.4400000 ]
  distance:    0.0664077
  band:
  - # 1
    frequency:    1.6236938086
  - # 2
    frequency:    1.6236938086
  - # 3
    frequency:    1.9025553722
  - # 4
    frequency:    1.9025553722
  - # 5
    frequency:    3.1141589862
  - # 6
    frequency:    3.6096107472
  - # 7
    frequency:    5.9910493040
  - # 8
    frequency:    5.9910493040
  - # 9
    frequency:    5.9939246902
  - # 10
    frequency:    5.9939246902
  - # 11
    frequency:    7.8725829844
  - # 12
    frequency:    8.2781501028

- q-position: [    0.0000000,    0.0000000,    0.4500000 ]
  distance:    0.0679169
  band:
  - # 1
    frequency:    1.6502981868
  - # 2
    frequency:    1.6502981868
  - # 3
    frequency:    1.8826932696
  - # 4
    frequency:    1.8826932696
  - # 5
    frequency:    3.1602819782
  - # 6
    frequency:    3.5723884330
  - # 7
    frequency:    5.9909395440
  - # 8
    frequency:    5.9909395440
  - # 9
    frequency:    5.9933499180
  - # 10
    frequency:    5.9933499180
  - # 11
    frequency:    7.9186022704
  - # 12
    frequency:    8.2570709055

- q-position: [    0.0000000,    0.0000000,    0.4600000 ]
  distance:    0.0694262
  band:
  - # 1
    frequency:    1.6762972858
  - # 2
    frequency:    1.6762972858
  - # 3
    frequency:    1.8622201650
  - # 4
    frequency:    1.8622201650
  - # 5
    frequency:    3.2053965543
  - # 6
    frequency:    3.5345751747
  - # 7
    frequency:    5.9908939252
  - # 8
    frequency:    5.9908939252
  - # 9
    frequency:    5.9928316039
  - # 10
    frequency:    5.9928316039
  - # 11
    frequency:    7.9625339952
  - # 12
    frequency:    8.2336329655

- q-position: [    0.0000000,    0.0000000,    0.4700000 ]
  distance:    0.0709355
  band:
  - # 1
    frequency:    1.7016876524
  - # 2
    frequency:    1.7016876524
  - # 3
    frequency:    1.8411337748
  - # 4
    frequency:    1.8411337748
  - # 5
    frequency:    3.2495375930
  - # 6
    frequency:    3.4961248929
  - # 7
    frequency:    5.9909128688
  - # 8
    frequency:    5.9909128688
  - # 9
    frequency:    5.9923716333
  - # 10
    frequency:    5.9923716333
  - # 11
    frequency:    8.0043242388
  - # 12
    frequency:    8.2078372140

- q-position: [    0.0000000,    0.0000000,    0.4800000 ]
  distance:    0.0724447
  band:
  - # 1
    frequency:    1.7264664709
  - # 2
    frequency:    1.7264664709
  - # 3
    frequency:    1.8194324356
  - # 4
    frequency:    1.8194324356
  - # 5
    frequency:    3.2927419717
  - # 6
    frequency:    3.4569918140
  - # 7
    frequency:    5.9909965215
  - # 8
    frequency:    5.9909965215
  - # 9
    frequency:    5.9919716651
  - # 10
    frequency:    5.9919716651
  - # 11
    frequency:    8.0439251918
  - # 12
    frequency:    8.1796902848

- q-position: [    0.0000000,    0.0000000,    0.4900000 ]
  distance:    0.0739540
  band:
  - # 1
    frequency:    1.7506315668
  - # 2
    frequency:    1.7506315668
  - # 3
    frequency:    1.7971151133
  - # 4
    frequency:    1.7971151133
  - # 5
    frequency:    3.3350484226
  - # 6
    frequency:    3.4171307522
  - # 7
    frequency:    5.9911447565
  - # 8
    frequency:    5.9911447565
  - # 9
    frequency:    5.9916331210
  - # 10
    frequency:    5.9916331210
  - # 11
    frequency:    8.0812950914
  - # 12
    frequency:    8.1492045500

- q-position: [    0.0000000,    0.0000000,    0.5000000 ]
  distance:    0.0754633
  band:
  - # 1
    frequency:    1.7741814096
  - # 2
    frequency:    1.7741814096
  - # 3
    frequency:    1.7741814096
  - # 4
    frequency:    1.7741814096
  - # 5
    frequency:    3.3764973706
  - # 6
    frequency:    3.3764973706
  - # 7
    frequency:    5.9913571772
  - # 8
    frequency:    5.9913571772
  - # 9
    frequency:    5.9913571772
  - # 10
    frequency:    5.9913571772
  - # 11
    frequency:    8.1163981605
  - # 12
    frequency:    8.1163981605

- q-position: [    0.0000000,    0.0000000,    0.5000000 ]
  distance:    0.0754633
  band:
  - # 1
    frequency:    1.7741814096
  - # 2
    frequency:    1.7741814096