   9   9   0   0
  0.1263398E+02  0.4916558E-09  0.4916558E-09  0.5431625E-09  0.5000000E-15
   1.0000000000000000E-004
  CAR 
 unknown system                          
     16.79597977    -20.35094586  301      1.10140369      1.00000000
    -20.351  0.0000E+00  0.0000E+00
    -20.227  0.0000E+00  0.0000E+00
    -20.103  0.0000E+00  0.0000E+00
    -19.979  0.0000E+00  0.0000E+00
    -19.856  0.0000E+00  0.0000E+00
    -19.732  0.0000E+00  0.0000E+00
    -19.608  0.0000E+00  0.0000E+00
    -19.484  0.0000E+00  0.0000E+00
    -19.360  0.0000E+00  0.0000E+00
    -19.237  0.0000E+00  0.0000E+00
    -19.113  0.0000E+00  0.0000E+00
    -18.989  0.0000E+00  0.0000E+00
    -18.865  0.0000E+00  0.0000E+00
    -18.741  0.0000E+00  0.0000E+00
    -18.617  0.0000E+00  0.0000E+00
    -18.494  0.0000E+00  0.0000E+00
    -18.370  0.0000E+00  0.0000E+00
    -18.246  0.8552E+00  0.2993E-01
    -18.122  0.2139E+01  0.2127E+00
    -17.998  0.3239E+01  0.5191E+00
    -17.874  0.7950E+01  0.1150E+01
    -17.751  0.1628E+01  0.2017E+01
    -17.627  0.8660E+00  0.2089E+01
    -17.503  0.1849E+01  0.2243E+01
    -17.379  0.1120E+02  0.2940E+01
    -17.255  0.2250E+01  0.3728E+01
    -17.132  0.9419E+00  0.3895E+01
    -17.008  0.3970E+00  0.3976E+01
    -16.884  0.2375E+01  0.4126E+01
    -16.760  0.8288E+01  0.5173E+01
    -16.636  0.2364E+01  0.5582E+01
    -16.512  0.1351E+01  0.5805E+01
    -16.389  0.8777E+00  0.5949E+01
    -16.265  0.2791E+02  0.6206E+01
    -16.141  0.4275E+02  0.1200E+02
    -16.017  0.0000E+00  0.1200E+02
    -15.893  0.0000E+00  0.1200E+02
    -15.769  0.0000E+00  0.1200E+02
    -15.646  0.0000E+00  0.1200E+02
    -15.522  0.0000E+00  0.1200E+02
    -15.398  0.0000E+00  0.1200E+02
    -15.274  0.0000E+00  0.1200E+02
    -15.150  0.0000E+00  0.1200E+02
    -15.027  0.0000E+00  0.1200E+02
    -14.903  0.0000E+00  0.1200E+02
    -14.779  0.0000E+00  0.1200E+02
    -14.655  0.0000E+00  0.1200E+02
    -14.531  0.0000E+00  0.1200E+02
    -14.407  0.0000E+00  0.1200E+02
    -14.284  0.0000E+00  0.1200E+02
    -14.160  0.0000E+00  0.1200E+02
    -14.036  0.0000E+00  0.1200E+02
    -13.912  0.0000E+00  0.1200E+02
    -13.788  0.0000E+00  0.1200E+02
    -13.664  0.0000E+00  0.1200E+02
    -13.541  0.0000E+00  0.1200E+02
    -13.417  0.0000E+00  0.1200E+02
    -13.293  0.0000E+00  0.1200E+02
    -13.169  0.0000E+00  0.1200E+02
    -13.045  0.0000E+00  0.1200E+02
    -12.922  0.0000E+00  0.1200E+02
    -12.798  0.0000E+00  0.1200E+02
    -12.674  0.0000E+00  0.1200E+02
    -12.550  0.0000E+00  0.1200E+02
    -12.426  0.0000E+00  0.1200E+02
    -12.302  0.0000E+00  0.1200E+02
    -12.179  0.0000E+00  0.1200E+02
    -12.055  0.0000E+00  0.1200E+02
    -11.931  0.0000E+00  0.1200E+02
    -11.807  0.0000E+00  0.1200E+02
    -11.683  0.0000E+00  0.1200E+02
    -11.560  0.0000E+00  0.1200E+02
    -11.436  0.0000E+00  0.1200E+02
    -11.312  0.0000E+00  0.1200E+02
    -11.188  0.0000E+00  0.1200E+02
    -11.064  0.0000E+00  0.1200E+02
    -10.940  0.0000E+00  0.1200E+02
    -10.817  0.0000E+00  0.1200E+02
    -10.693  0.0000E+00  0.1200E+02
    -10.569  0.0000E+00  0.1200E+02
    -10.445  0.0000E+00  0.1200E+02
    -10.321  0.0000E+00  0.1200E+02
    -10.197  0.0000E+00  0.1200E+02
    -10.074  0.0000E+00  0.1200E+02
     -9.950  0.0000E+00  0.1200E+02
     -9.826  0.0000E+00  0.1200E+02
     -9.702  0.0000E+00  0.1200E+02
     -9.578  0.0000E+00  0.1200E+02
     -9.455  0.0000E+00  0.1200E+02
     -9.331  0.0000E+00  0.1200E+02
     -9.207  0.0000E+00  0.1200E+02
     -9.083  0.0000E+00  0.1200E+02
     -8.959  0.0000E+00  0.1200E+02
     -8.835  0.0000E+00  0.1200E+02
     -8.712  0.0000E+00  0.1200E+02
     -8.588  0.0000E+00  0.1200E+02
     -8.464  0.0000E+00  0.1200E+02
     -8.340  0.0000E+00  0.1200E+02
     -8.216  0.1051E-01  0.1200E+02
     -8.092  0.1508E+00  0.1201E+02
     -7.969  0.4729E+00  0.1204E+02
     -7.845  0.7378E+00  0.1212E+02
     -7.721  0.9076E+00  0.1222E+02
     -7.597  0.1336E+01  0.1236E+02
     -7.473  0.1904E+01  0.1256E+02
     -7.350  0.6362E+01  0.1293E+02
     -7.226  0.2728E+01  0.1377E+02
     -7.102  0.7884E+00  0.1394E+02
     -6.978  0.3166E+00  0.1400E+02
     -6.854  0.2096E+00  0.1402E+02
     -6.730  0.3663E+00  0.1406E+02
     -6.607  0.5665E+00  0.1412E+02
     -6.483  0.8102E+00  0.1420E+02
     -6.359  0.1842E+01  0.1435E+02
     -6.235  0.5180E+01  0.1476E+02
     -6.111  0.4414E+01  0.1541E+02
     -5.987  0.1212E+01  0.1572E+02
     -5.864  0.6953E+00  0.1584E+02
     -5.740  0.4830E+00  0.1591E+02
     -5.616  0.3035E+00  0.1596E+02
     -5.492  0.1567E+00  0.1598E+02
     -5.368  0.2919E+01  0.1612E+02
     -5.245  0.3932E+01  0.1653E+02
     -5.121  0.3039E+01  0.1697E+02
     -4.997  0.2326E+01  0.1729E+02
     -4.873  0.1832E+01  0.1755E+02
     -4.749  0.1200E+01  0.1774E+02
     -4.625  0.8278E+00  0.1786E+02
     -4.502  0.5949E+00  0.1795E+02
     -4.378  0.1735E+02  0.1827E+02
     -4.254  0.1205E+02  0.2001E+02
     -4.130  0.5813E+01  0.2100E+02
     -4.006  0.2550E+01  0.2201E+02
     -3.882  0.2290E+01  0.2211E+02
     -3.759  0.9768E+01  0.2312E+02
     -3.635  0.3038E+01  0.2380E+02
     -3.511  0.4075E+00  0.2399E+02
     -3.387  0.0000E+00  0.2400E+02
     -3.263  0.0000E+00  0.2400E+02
     -3.140  0.0000E+00  0.2400E+02
     -3.016  0.0000E+00  0.2400E+02
     -2.892  0.0000E+00  0.2400E+02
     -2.768  0.0000E+00  0.2400E+02
     -2.644  0.0000E+00  0.2400E+02
     -2.520  0.0000E+00  0.2400E+02
     -2.397  0.0000E+00  0.2400E+02
     -2.273  0.0000E+00  0.2400E+02
     -2.149  0.3754E+01  0.2407E+02
     -2.025  0.1280E+02  0.2556E+02
     -1.901  0.6376E+01  0.2634E+02
     -1.777  0.9802E+01  0.2734E+02
     -1.654  0.4134E+01  0.2801E+02
     -1.530  0.1494E+02  0.2899E+02
     -1.406  0.3451E+01  0.2989E+02
     -1.282  0.2669E+01  0.3008E+02
     -1.158  0.1182E+02  0.3135E+02
     -1.035  0.2585E+01  0.3197E+02
     -0.911  0.2492E+02  0.3328E+02
     -0.787  0.7407E+00  0.3393E+02
     -0.663  0.8261E+01  0.3445E+02
     -0.539  0.1225E+02  0.3554E+02
     -0.415  0.1597E+02  0.3665E+02
     -0.292  0.5719E+01  0.3777E+02
     -0.168  0.1039E+02  0.3862E+02
     -0.044  0.5492E+01  0.3991E+02
      0.080  0.1746E+02  0.4089E+02
      0.204  0.1831E+01  0.4200E+02
      0.328  0.1268E+02  0.4272E+02
      0.451  0.3757E+01  0.4373E+02
      0.575  0.5280E+01  0.4424E+02
      0.699  0.8796E+01  0.4507E+02
      0.823  0.5148E+01  0.4618E+02
      0.947  0.1479E+02  0.4716E+02
      1.070  0.1292E+01  0.4800E+02
      1.194  0.0000E+00  0.4800E+02
      1.318  0.0000E+00  0.4800E+02
      1.442  0.0000E+00  0.4800E+02
      1.566  0.0000E+00  0.4800E+02
      1.690  0.0000E+00  0.4800E+02
      1.813  0.0000E+00  0.4800E+02
      1.937  0.0000E+00  0.4800E+02
      2.061  0.0000E+00  0.4800E+02
      2.185  0.0000E+00  0.4800E+02
      2.309  0.0000E+00  0.4800E+02
      2.433  0.0000E+00  0.4800E+02
      2.556  0.0000E+00  0.4800E+02
      2.680  0.0000E+00  0.4800E+02
      2.804  0.0000E+00  0.4800E+02
      2.928  0.0000E+00  0.4800E+02
      3.052  0.0000E+00  0.4800E+02
      3.175  0.0000E+00  0.4800E+02
      3.299  0.0000E+00  0.4800E+02
      3.423  0.0000E+00  0.4800E+02
      3.547  0.0000E+00  0.4800E+02
      3.671  0.0000E+00  0.4800E+02
      3.795  0.0000E+00  0.4800E+02
      3.918  0.0000E+00  0.4800E+02
      4.042  0.0000E+00  0.4800E+02
      4.166  0.0000E+00  0.4800E+02
      4.290  0.0000E+00  0.4800E+02
      4.414  0.0000E+00  0.4800E+02
      4.537  0.0000E+00  0.4800E+02
      4.661  0.0000E+00  0.4800E+02
      4.785  0.0000E+00  0.4800E+02
      4.909  0.0000E+00  0.4800E+02
      5.033  0.0000E+00  0.4800E+02
      5.157  0.0000E+00  0.4800E+02
      5.280  0.0000E+00  0.4800E+02
      5.404  0.0000E+00  0.4800E+02
      5.528  0.0000E+00  0.4800E+02
      5.652  0.0000E+00  0.4800E+02
      5.776  0.0000E+00  0.4800E+02
      5.900  0.0000E+00  0.4800E+02
      6.023  0.0000E+00  0.4800E+02
      6.147  0.0000E+00  0.4800E+02
      6.271  0.0000E+00  0.4800E+02
      6.395  0.0000E+00  0.4800E+02
      6.519  0.0000E+00  0.4800E+02
      6.642  0.0000E+00  0.4800E+02
      6.766  0.0000E+00  0.4800E+02
      6.890  0.0000E+00  0.4800E+02
      7.014  0.8497E-04  0.4800E+02
      7.138  0.1125E-01  0.4800E+02
      7.262  0.4118E-01  0.4800E+02
      7.385  0.8988E-01  0.4801E+02
      7.509  0.1573E+00  0.4803E+02
      7.633  0.2522E+00  0.4805E+02
      7.757  0.3112E+00  0.4809E+02
      7.881  0.3577E+00  0.4813E+02
      8.005  0.3917E+00  0.4817E+02
      8.128  0.4262E+00  0.4822E+02
      8.252  0.4875E+00  0.4828E+02
      8.376  0.5528E+00  0.4835E+02
      8.500  0.6221E+00  0.4842E+02
      8.624  0.7007E+00  0.4850E+02
      8.747  0.8006E+00  0.4859E+02
      8.871  0.9327E+00  0.4870E+02
      8.995  0.1197E+01  0.4883E+02
      9.119  0.1416E+01  0.4899E+02
      9.243  0.1567E+01  0.4918E+02
      9.367  0.1638E+01  0.4938E+02
      9.490  0.1635E+01  0.4958E+02
      9.614  0.1690E+01  0.4979E+02
      9.738  0.1754E+01  0.5001E+02
      9.862  0.9814E+00  0.5017E+02
      9.986  0.7800E+00  0.5027E+02
     10.110  0.2131E+01  0.5042E+02
     10.233  0.1084E+02  0.5118E+02
     10.357  0.4871E+01  0.5209E+02
     10.481  0.4836E+01  0.5261E+02
     10.605  0.8718E+01  0.5353E+02
     10.729  0.4001E+01  0.5429E+02
     10.852  0.3041E+01  0.5465E+02
     10.976  0.8070E+01  0.5536E+02
     11.100  0.3489E+01  0.5622E+02
     11.224  0.6303E+01  0.5669E+02
     11.348  0.4857E+01  0.5754E+02
     11.472  0.1855E+01  0.5790E+02
     11.595  0.1287E+02  0.5897E+02
     11.719  0.6260E+01  0.5990E+02
     11.843  0.4095E+01  0.6044E+02
     11.967  0.5794E+01  0.6104E+02
     12.091  0.2577E+01  0.6149E+02
     12.215  0.3822E+01  0.6184E+02
     12.338  0.4500E+01  0.6246E+02
     12.462  0.3558E+01  0.6290E+02
     12.586  0.5412E+01  0.6344E+02
     12.710  0.3713E+01  0.6398E+02
     12.834  0.3943E+01  0.6444E+02
     12.957  0.5705E+01  0.6503E+02
     13.081  0.5417E+01  0.6571E+02
     13.205  0.5310E+01  0.6638E+02
     13.329  0.6803E+01  0.6711E+02
     13.453  0.6627E+01  0.6801E+02
     13.577  0.5923E+01  0.6877E+02
     13.700  0.6040E+01  0.6940E+02
     13.824  0.3546E+01  0.6996E+02
     13.948  0.5455E+01  0.7052E+02
     14.072  0.3246E+01  0.7108E+02
     14.196  0.2164E+01  0.7141E+02
     14.320  0.1619E+01  0.7163E+02
     14.443  0.1246E+01  0.7184E+02
     14.567  0.5951E+00  0.7194E+02
     14.691  0.2289E+00  0.7199E+02
     14.815  0.0000E+00  0.7200E+02
     14.939  0.0000E+00  0.7200E+02
     15.062  0.0000E+00  0.7200E+02
     15.186  0.0000E+00  0.7200E+02
     15.310  0.0000E+00  0.7200E+02
     15.434  0.0000E+00  0.7200E+02
     15.558  0.0000E+00  0.7200E+02
     15.682  0.0000E+00  0.7200E+02
     15.805  0.0000E+00  0.7200E+02
     15.929  0.0000E+00  0.7200E+02
     16.053  0.0000E+00  0.7200E+02
     16.177  0.0000E+00  0.7200E+02
     16.301  0.0000E+00  0.7200E+02
     16.425  0.0000E+00  0.7200E+02
     16.548  0.0000E+00  0.7200E+02
     16.672  0.0000E+00  0.7200E+02
     16.796  0.0000E+00  0.7200E+02
