nqpoint: 255    
npath: 5      
segment_nqpoint:
- 51
- 51
- 51
- 51
- 51
labels:
- [ '$Gamma$', 'A' ]
- [ 'A', 'H' ]
- [ 'H', 'K' ]
- [ 'K', 'L' ]
- [ 'L', 'M' ]
reciprocal_lattice:
- [   0.25983173,  -0.15001392,   0.00000000 ] # a*
- [   0.25983173,   0.15001392,   0.00000000 ] # b*
- [   0.00000000,   0.00000000,   0.15847285 ] # c*
natom: 4      
lattice:
- [     1.924322328976466,    -3.333024043926510,     0.000000000000000 ] # a
- [     1.924322328976466,     3.333024043926510,     0.000000000000000 ] # b
- [     0.000000000000000,     0.000000000000000,     6.310229253876678 ] # c
points:
- symbol: Zn # 1
  coordinates: [  0.333333333333336,  0.666666666666664,  0.000260133470718 ]
  mass: 65.380000
- symbol: Zn # 2
  coordinates: [  0.666666666666664,  0.333333333333336,  0.500260133470718 ]
  mass: 65.380000
- symbol: S # 3
  coordinates: [  0.333333333333336,  0.666666666666664,  0.374739866529282 ]
  mass: 32.065000
- symbol: S # 4
  coordinates: [  0.666666666666664,  0.333333333333336,  0.874739866529282 ]
  mass: 32.065000

phonon:
- q-position: [    0.0000000,    0.0000000,    0.0000000 ]
  distance:    0.0000000
  band:
  - # 1
    frequency:   -0.0000001764
  - # 2
    frequency:    0.0000003422
  - # 3
    frequency:    0.0000003638
  - # 4
    frequency:    2.1754804313
  - # 5
    frequency:    2.1754804313
  - # 6
    frequency:    5.6631094003
  - # 7
    frequency:    7.7675647581
  - # 8
    frequency:    7.9402966580
  - # 9
    frequency:    7.9402966580
  - # 10
    frequency:    8.0803081351
  - # 11
    frequency:    8.0803081351
  - # 12
    frequency:    9.6481366874

- q-position: [    0.0000000,    0.0000000,    0.0100000 ]
  distance:    0.0015847
  band:
  - # 1
    frequency:    0.0436454744
  - # 2
    frequency:    0.0436454744
  - # 3
    frequency:    0.1029110849
  - # 4
    frequency:    2.1753884030
  - # 5
    frequency:    2.1753884030
  - # 6
    frequency:    5.6621456591
  - # 7
    frequency:    7.7691126864
  - # 8
    frequency:    7.9402989578
  - # 9
    frequency:    7.9402989578
  - # 10
    frequency:    8.0802400510
  - # 11
    frequency:    8.0802400510
  - # 12
    frequency:    9.6488398589

- q-position: [    0.0000000,    0.0000000,    0.0200000 ]
  distance:    0.0031695
  band:
  - # 1
    frequency:    0.0872685879
  - # 2
    frequency:    0.0872685879
  - # 3
    frequency:    0.2057529735
  - # 4
    frequency:    2.1751118616
  - # 5
    frequency:    2.1751118616
  - # 6
    frequency:    5.6592591197
  - # 7
    frequency:    7.7737507053
  - # 8
    frequency:    7.9403059413
  - # 9
    frequency:    7.9403059413
  - # 10
    frequency:    8.0800359633
  - # 11
    frequency:    8.0800359633
  - # 12
    frequency:    9.6509427468

- q-position: [    0.0000000,    0.0000000,    0.0300000 ]
  distance:    0.0047542
  band:
  - # 1
    frequency:    0.1308470000
  - # 2
    frequency:    0.1308470000
  - # 3
    frequency:    0.3084567004
  - # 4
    frequency:    2.1746494398
  - # 5
    frequency:    2.1746494398
  - # 6
    frequency:    5.6544637400
  - # 7
    frequency:    7.7814615581
  - # 8
    frequency:    7.9403178603
  - # 9
    frequency:    7.9403178603
  - # 10
    frequency:    8.0796963647
  - # 11
    frequency:    8.0796963647
  - # 12
    frequency:    9.6544255692

- q-position: [    0.0000000,    0.0000000,    0.0400000 ]
  distance:    0.0063389
  band:
  - # 1
    frequency:    0.1743584101
  - # 2
    frequency:    0.1743584101
  - # 3
    frequency:    0.4109537594
  - # 4
    frequency:    2.1739988645
  - # 5
    frequency:    2.1739988645
  - # 6
    frequency:    5.6477824717
  - # 7
    frequency:    7.7922166221
  - # 8
    frequency:    7.9403351335
  - # 9
    frequency:    7.9403351335
  - # 10
    frequency:    8.0792220748
  - # 11
    frequency:    8.0792220748
  - # 12
    frequency:    9.6592556795

- q-position: [    0.0000000,    0.0000000,    0.0500000 ]
  distance:    0.0079236
  band:
  - # 1
    frequency:    0.2177805782
  - # 2
    frequency:    0.2177805782
  - # 3
    frequency:    0.5131763281
  - # 4
    frequency:    2.1731569656
  - # 5
    frequency:    2.1731569656
  - # 6
    frequency:    5.6392468061
  - # 7
    frequency:    7.8059761148
  - # 8
    frequency:    7.9403583448
  - # 9
    frequency:    7.9403583448
  - # 10
    frequency:    8.0786142377
  - # 11
    frequency:    8.0786142377
  - # 12
    frequency:    9.6653880384

- q-position: [    0.0000000,    0.0000000,    0.0600000 ]
  distance:    0.0095084
  band:
  - # 1
    frequency:    0.2610913448
  - # 2
    frequency:    0.2610913448
  - # 3
    frequency:    0.6150574851
  - # 4
    frequency:    2.1721196890
  - # 5
    frequency:    2.1721196890
  - # 6
    frequency:    5.6288961608
  - # 7
    frequency:    7.8226893764
  - # 8
    frequency:    7.9403882411
  - # 9
    frequency:    7.9403882411
  - # 10
    frequency:    8.0778743185
  - # 11
    frequency:    8.0778743185
  - # 12
    frequency:    9.6727658519

- q-position: [    0.0000000,    0.0000000,    0.0700000 ]
  distance:    0.0110931
  band:
  - # 1
    frequency:    0.3042686513
  - # 2
    frequency:    0.3042686513
  - # 3
    frequency:    0.7165314191
  - # 4
    frequency:    2.1708821116
  - # 5
    frequency:    2.1708821116
  - # 6
    frequency:    5.6167771317
  - # 7
    frequency:    7.8422952274
  - # 8
    frequency:    7.9404257291
  - # 9
    frequency:    7.9404257291
  - # 10
    frequency:    8.0770040992
  - # 11
    frequency:    8.0770040992
  - # 12
    frequency:    9.6813213525

- q-position: [    0.0000000,    0.0000000,    0.0800000 ]
  distance:    0.0126778
  band:
  - # 1
    frequency:    0.3472905606
  - # 2
    frequency:    0.3472905606
  - # 3
    frequency:    0.8175336284
  - # 4
    frequency:    2.1694384609
  - # 5
    frequency:    2.1694384609
  - # 6
    frequency:    5.6029426338
  - # 7
    frequency:    7.8647223932
  - # 8
    frequency:    7.9404718721
  - # 9
    frequency:    7.9404718721
  - # 10
    frequency:    8.0760056728
  - # 11
    frequency:    8.0760056728
  - # 12
    frequency:    9.6909766994

- q-position: [    0.0000000,    0.0000000,    0.0900000 ]
  distance:    0.0142626
  band:
  - # 1
    frequency:    0.3901352774
  - # 2
    frequency:    0.3901352774
  - # 3
    frequency:    0.9180011074
  - # 4
    frequency:    2.1677821372
  - # 5
    frequency:    2.1677821372
  - # 6
    frequency:    5.5874509598
  - # 7
    frequency:    7.8898899906
  - # 8
    frequency:    7.9405278857
  - # 9
    frequency:    7.9405278857
  - # 10
    frequency:    8.0748814377
  - # 11
    frequency:    8.0748814377
  - # 12
    frequency:    9.7016449688

- q-position: [    0.0000000,    0.0000000,    0.1000000 ]
  distance:    0.0158473
  band:
  - # 1
    frequency:    0.4327811688
  - # 2
    frequency:    0.4327811688
  - # 3
    frequency:    1.0178725214
  - # 4
    frequency:    2.1659057392
  - # 5
    frequency:    2.1659057392
  - # 6
    frequency:    5.5703647854
  - # 7
    frequency:    7.9177080695
  - # 8
    frequency:    7.9405951326
  - # 9
    frequency:    7.9405951326
  - # 10
    frequency:    8.0736340902
  - # 11
    frequency:    8.0736340902
  - # 12
    frequency:    9.7132312072

- q-position: [    0.0000000,    0.0000000,    0.1100000 ]
  distance:    0.0174320
  band:
  - # 1
    frequency:    0.4752067854
  - # 2
    frequency:    0.4752067854
  - # 3
    frequency:    1.1170883668
  - # 4
    frequency:    2.1638010924
  - # 5
    frequency:    2.1638010924
  - # 6
    frequency:    5.5517501486
  - # 7
    frequency:    7.9406751175
  - # 8
    frequency:    7.9406751175
  - # 9
    frequency:    7.9480782019
  - # 10
    frequency:    8.0722666164
  - # 11
    frequency:    8.0722666164
  - # 12
    frequency:    9.7256335205

- q-position: [    0.0000000,    0.0000000,    0.1200000 ]
  distance:    0.0190167
  band:
  - # 1
    frequency:    0.5173908820
  - # 2
    frequency:    0.5173908820
  - # 3
    frequency:    1.2155911169
  - # 4
    frequency:    2.1614592804
  - # 5
    frequency:    2.1614592804
  - # 6
    frequency:    5.5316754298
  - # 7
    frequency:    7.9407694810
  - # 8
    frequency:    7.9407694810
  - # 9
    frequency:    7.9808941102
  - # 10
    frequency:    8.0707822830
  - # 11
    frequency:    8.0707822830
  - # 12
    frequency:    9.7387441716

- q-position: [    0.0000000,    0.0000000,    0.1300000 ]
  distance:    0.0206015
  band:
  - # 1
    frequency:    0.5593124389
  - # 2
    frequency:    0.5593124389
  - # 3
    frequency:    1.3133253529
  - # 4
    frequency:    2.1588706792
  - # 5
    frequency:    2.1588706792
  - # 6
    frequency:    5.5102103552
  - # 7
    frequency:    7.9408799923
  - # 8
    frequency:    7.9408799923
  - # 9
    frequency:    8.0160423277
  - # 10
    frequency:    8.0691846277
  - # 11
    frequency:    8.0691846277
  - # 12
    frequency:    9.7524506656

- q-position: [    0.0000000,    0.0000000,    0.1400000 ]
  distance:    0.0221862
  band:
  - # 1
    frequency:    0.6009506831
  - # 2
    frequency:    0.6009506831
  - # 3
    frequency:    1.4102378796
  - # 4
    frequency:    2.1560249936
  - # 5
    frequency:    2.1560249936
  - # 6
    frequency:    5.4874250448
  - # 7
    frequency:    7.9410085425
  - # 8
    frequency:    7.9410085425
  - # 9
    frequency:    8.0534028823
  - # 10
    frequency:    8.0674774483
  - # 11
    frequency:    8.0674774483
  - # 12
    frequency:    9.7666368026

- q-position: [    0.0000000,    0.0000000,    0.1500000 ]
  distance:    0.0237709
  band:
  - # 1
    frequency:    0.6422851099
  - # 2
    frequency:    0.6422851099
  - # 3
    frequency:    1.5062778261
  - # 4
    frequency:    2.1529112962
  - # 5
    frequency:    2.1529112962
  - # 6
    frequency:    5.4633891195
  - # 7
    frequency:    7.9411571361
  - # 8
    frequency:    7.9411571361
  - # 9
    frequency:    8.0656647906
  - # 10
    frequency:    8.0656647906
  - # 11
    frequency:    8.0928499963
  - # 12
    frequency:    9.7811836819

- q-position: [    0.0000000,    0.0000000,    0.1600000 ]
  distance:    0.0253557
  band:
  - # 1
    frequency:    0.6832955045
  - # 2
    frequency:    0.6832955045
  - # 3
    frequency:    1.6013967324
  - # 4
    frequency:    2.1495180685
  - # 5
    frequency:    2.1495180685
  - # 6
    frequency:    5.4381708808
  - # 7
    frequency:    7.9413278828
  - # 8
    frequency:    7.9413278828
  - # 9
    frequency:    8.0637509367
  - # 10
    frequency:    8.0637509367
  - # 11
    frequency:    8.1342527947
  - # 12
    frequency:    9.7959706467

- q-position: [    0.0000000,    0.0000000,    0.1700000 ]
  distance:    0.0269404
  band:
  - # 1
    frequency:    0.7239619638
  - # 2
    frequency:    0.7239619638
  - # 3
    frequency:    1.6955486214
  - # 4
    frequency:    2.1458332444
  - # 5
    frequency:    2.1458332444
  - # 6
    frequency:    5.4118365713
  - # 7
    frequency:    7.9415229878
  - # 8
    frequency:    7.9415229878
  - # 9
    frequency:    8.0617403911
  - # 10
    frequency:    8.0617403911
  - # 11
    frequency:    8.1774760150
  - # 12
    frequency:    9.8108761605

- q-position: [    0.0000000,    0.0000000,    0.1800000 ]
  distance:    0.0285251
  band:
  - # 1
    frequency:    0.7642649184
  - # 2
    frequency:    0.7642649184
  - # 3
    frequency:    1.7886900585
  - # 4
    frequency:    2.1418442545
  - # 5
    frequency:    2.1418442545
  - # 6
    frequency:    5.3844497213
  - # 7
    frequency:    7.9417447425
  - # 8
    frequency:    7.9417447425
  - # 9
    frequency:    8.0596378668
  - # 10
    frequency:    8.0596378668
  - # 11
    frequency:    8.2223807121
  - # 12
    frequency:    9.8257786104

- q-position: [    0.0000000,    0.0000000,    0.1900000 ]
  distance:    0.0301098
  band:
  - # 1
    frequency:    0.8041851548
  - # 2
    frequency:    0.8041851548
  - # 3
    frequency:    1.8807801982
  - # 4
    frequency:    2.1375380735
  - # 5
    frequency:    2.1375380735
  - # 6
    frequency:    5.3560705844
  - # 7
    frequency:    7.9419955139
  - # 8
    frequency:    7.9419955139
  - # 9
    frequency:    8.0574482707
  - # 10
    frequency:    8.0574482707
  - # 11
    frequency:    8.2688249517
  - # 12
    frequency:    9.8405570359

- q-position: [    0.0000000,    0.0000000,    0.2000000 ]
  distance:    0.0316946
  band:
  - # 1
    frequency:    0.8437038378
  - # 2
    frequency:    0.8437038378
  - # 3
    frequency:    1.9717808198
  - # 4
    frequency:    2.1329012673
  - # 5
    frequency:    2.1329012673
  - # 6
    frequency:    5.3267556610
  - # 7
    frequency:    7.9422777338
  - # 8
    frequency:    7.9422777338
  - # 9
    frequency:    8.0551766877
  - # 10
    frequency:    8.0551766877
  - # 11
    frequency:    8.3166644887
  - # 12
    frequency:    9.8550917816

- q-position: [    0.0000000,    0.0000000,    0.2100000 ]
  distance:    0.0332793
  band:
  - # 1
    frequency:    0.8828025328
  - # 2
    frequency:    0.8828025328
  - # 3
    frequency:    2.0616563526
  - # 4
    frequency:    2.1279200428
  - # 5
    frequency:    2.1279200428
  - # 6
    frequency:    5.2965573084
  - # 7
    frequency:    7.9425938875
  - # 8
    frequency:    7.9425938875
  - # 9
    frequency:    8.0528283652
  - # 10
    frequency:    8.0528283652
  - # 11
    frequency:    8.3657534236
  - # 12
    frequency:    9.8692650791

- q-position: [    0.0000000,    0.0000000,    0.2200000 ]
  distance:    0.0348640
  band:
  - # 1
    frequency:    0.9214632282
  - # 2
    frequency:    0.9214632282
  - # 3
    frequency:    2.1225802980
  - # 4
    frequency:    2.1225802980
  - # 5
    frequency:    2.1503738922
  - # 6
    frequency:    5.2655234330
  - # 7
    frequency:    7.9429465018
  - # 8
    frequency:    7.9429465018
  - # 9
    frequency:    8.0504086958
  - # 10
    frequency:    8.0504086958
  - # 11
    frequency:    8.4159448358
  - # 12
    frequency:    9.8829615582

- q-position: [    0.0000000,    0.0000000,    0.2300000 ]
  distance:    0.0364488
  band:
  - # 1
    frequency:    0.9596683583
  - # 2
    frequency:    0.9596683583
  - # 3
    frequency:    2.1168676725
  - # 4
    frequency:    2.1168676725
  - # 5
    frequency:    2.2379032084
  - # 6
    frequency:    5.2336972615
  - # 7
    frequency:    7.9433381326
  - # 8
    frequency:    7.9433381326
  - # 9
    frequency:    8.0479232003
  - # 10
    frequency:    8.0479232003
  - # 11
    frequency:    8.4670913885
  - # 12
    frequency:    9.8960686955

- q-position: [    0.0000000,    0.0000000,    0.2400000 ]
  distance:    0.0380335
  band:
  - # 1
    frequency:    0.9974008255
  - # 2
    frequency:    0.9974008255
  - # 3
    frequency:    2.1107675995
  - # 4
    frequency:    2.1107675995
  - # 5
    frequency:    2.3242167462
  - # 6
    frequency:    5.2011171828
  - # 7
    frequency:    7.9437713523
  - # 8
    frequency:    7.9437713523
  - # 9
    frequency:    8.0453775098
  - # 10
    frequency:    8.0453775098
  - # 11
    frequency:    8.5190459039
  - # 12
    frequency:    9.9084772030

- q-position: [    0.0000000,    0.0000000,    0.2500000 ]
  distance:    0.0396182
  band:
  - # 1
    frequency:    1.0346440234
  - # 2
    frequency:    1.0346440234
  - # 3
    frequency:    2.1042653576
  - # 4
    frequency:    2.1042653576
  - # 5
    frequency:    2.4092896201
  - # 6
    frequency:    5.1678166572
  - # 7
    frequency:    7.9442487364
  - # 8
    frequency:    7.9442487364
  - # 9
    frequency:    8.0427773478
  - # 10
    frequency:    8.0427773478
  - # 11
    frequency:    8.5716619063
  - # 12
    frequency:    9.9200813637

- q-position: [    0.0000000,    0.0000000,    0.2600000 ]
  distance:    0.0412029
  band:
  - # 1
    frequency:    1.0713818586
  - # 2
    frequency:    1.0713818586
  - # 3
    frequency:    2.0973461230
  - # 4
    frequency:    2.0973461230
  - # 5
    frequency:    2.4930996040
  - # 6
    frequency:    5.1338241852
  - # 7
    frequency:    7.9447728503
  - # 8
    frequency:    7.9447728503
  - # 9
    frequency:    8.0401285112
  - # 10
    frequency:    8.0401285112
  - # 11
    frequency:    8.6247941323
  - # 12
    frequency:    9.9307793199

- q-position: [    0.0000000,    0.0000000,    0.2700000 ]
  distance:    0.0427877
  band:
  - # 1
    frequency:    1.1075987740
  - # 2
    frequency:    1.1075987740
  - # 3
    frequency:    2.0899950215
  - # 4
    frequency:    2.0899950215
  - # 5
    frequency:    2.5756271155
  - # 6
    frequency:    5.0991633298
  - # 7
    frequency:    7.9453462351
  - # 8
    frequency:    7.9453462351
  - # 9
    frequency:    8.0374368518
  - # 10
    frequency:    8.0374368518
  - # 11
    frequency:    8.6782990071
  - # 12
    frequency:    9.9404733183

- q-position: [    0.0000000,    0.0000000,    0.2800000 ]
  distance:    0.0443724
  band:
  - # 1
    frequency:    1.1432797704
  - # 2
    frequency:    1.1432797704
  - # 3
    frequency:    2.0821971804
  - # 4
    frequency:    2.0821971804
  - # 5
    frequency:    2.6568551966
  - # 6
    frequency:    5.0638527871
  - # 7
    frequency:    7.9459713941
  - # 8
    frequency:    7.9459713941
  - # 9
    frequency:    8.0347082570
  - # 10
    frequency:    8.0347082570
  - # 11
    frequency:    8.7320350869
  - # 12
    frequency:    9.9490699198

- q-position: [    0.0000000,    0.0000000,    0.2900000 ]
  distance:    0.0459571
  band:
  - # 1
    frequency:    1.1784104287
  - # 2
    frequency:    1.1784104287
  - # 3
    frequency:    2.0739377804
  - # 4
    frequency:    2.0739377804
  - # 5
    frequency:    2.7367694913
  - # 6
    frequency:    5.0279064983
  - # 7
    frequency:    7.9466507776
  - # 8
    frequency:    7.9466507776
  - # 9
    frequency:    8.0319486306
  - # 10
    frequency:    8.0319486306
  - # 11
    frequency:    8.7858634671
  - # 12
    frequency:    9.9564801765

- q-position: [    0.0000000,    0.0000000,    0.3000000 ]
  distance:    0.0475419
  band:
  - # 1
    frequency:    1.2129769319
  - # 2
    frequency:    1.2129769319
  - # 3
    frequency:    2.0652021065
  - # 4
    frequency:    2.0652021065
  - # 5
    frequency:    2.8153582196
  - # 6
    frequency:    4.9913337976
  - # 7
    frequency:    7.9473867694
  - # 8
    frequency:    7.9473867694
  - # 9
    frequency:    8.0291638737
  - # 10
    frequency:    8.0291638737
  - # 11
    frequency:    8.8396481577
  - # 12
    frequency:    9.9626197810

- q-position: [    0.0000000,    0.0000000,    0.3100000 ]
  distance:    0.0491266
  band:
  - # 1
    frequency:    1.2469660861
  - # 2
    frequency:    1.2469660861
  - # 3
    frequency:    2.0559755979
  - # 4
    frequency:    2.0559755979
  - # 5
    frequency:    2.8926121485
  - # 6
    frequency:    4.9541395918
  - # 7
    frequency:    7.9481816717
  - # 8
    frequency:    7.9481816717
  - # 9
    frequency:    8.0263598650
  - # 10
    frequency:    8.0263598650
  - # 11
    frequency:    8.8932564260
  - # 12
    frequency:    9.9674091938

- q-position: [    0.0000000,    0.0000000,    0.3200000 ]
  distance:    0.0507113
  band:
  - # 1
    frequency:    1.2803653416
  - # 2
    frequency:    1.2803653416
  - # 3
    frequency:    2.0462438982
  - # 4
    frequency:    2.0462438982
  - # 5
    frequency:    2.9685245606
  - # 6
    frequency:    4.9163245660
  - # 7
    frequency:    7.9490376908
  - # 8
    frequency:    7.9490376908
  - # 9
    frequency:    8.0235424421
  - # 10
    frequency:    8.0235424421
  - # 11
    frequency:    8.9465591079
  - # 12
    frequency:    9.9707737500

- q-position: [    0.0000000,    0.0000000,    0.3300000 ]
  distance:    0.0522960
  band:
  - # 1
    frequency:    1.3131628132
  - # 2
    frequency:    1.3131628132
  - # 3
    frequency:    2.0359929029
  - # 4
    frequency:    2.0359929029
  - # 5
    frequency:    3.0430912197
  - # 6
    frequency:    4.8778854101
  - # 7
    frequency:    7.9499569224
  - # 8
    frequency:    7.9499569224
  - # 9
    frequency:    8.0207173822
  - # 10
    frequency:    8.0207173822
  - # 11
    frequency:    8.9994308895
  - # 12
    frequency:    9.9726437496

- q-position: [    0.0000000,    0.0000000,    0.3400000 ]
  distance:    0.0538808
  band:
  - # 1
    frequency:    1.3453473003
  - # 2
    frequency:    1.3453473003
  - # 3
    frequency:    2.0252088075
  - # 4
    frequency:    2.0252088075
  - # 5
    frequency:    3.1163103338
  - # 6
    frequency:    4.8388150642
  - # 7
    frequency:    7.9509413374
  - # 8
    frequency:    7.9509413374
  - # 9
    frequency:    8.0178903832
  - # 10
    frequency:    8.0178903832
  - # 11
    frequency:    9.0517505601
  - # 12
    frequency:    9.9729545355

- q-position: [    0.0000000,    0.0000000,    0.3500000 ]
  distance:    0.0554655
  band:
  - # 1
    frequency:    1.3769083053
  - # 2
    frequency:    1.3769083053
  - # 3
    frequency:    2.0138781524
  - # 4
    frequency:    2.0138781524
  - # 5
    frequency:    3.1881825139
  - # 6
    frequency:    4.7991029771
  - # 7
    frequency:    7.9519927676
  - # 8
    frequency:    7.9519927676
  - # 9
    frequency:    8.0150670457
  - # 10
    frequency:    8.0150670457
  - # 11
    frequency:    9.1034012379
  - # 12
    frequency:    9.9716465583

- q-position: [    0.0000000,    0.0000000,    0.3600000 ]
  distance:    0.0570502
  band:
  - # 1
    frequency:    1.4078360527
  - # 2
    frequency:    1.4078360527
  - # 3
    frequency:    2.0019878682
  - # 4
    frequency:    2.0019878682
  - # 5
    frequency:    3.2587107308
  - # 6
    frequency:    4.7587353751
  - # 7
    frequency:    7.9531128917
  - # 8
    frequency:    7.9531128917
  - # 9
    frequency:    8.0122528551
  - # 10
    frequency:    8.0122528551
  - # 11
    frequency:    9.1542705715
  - # 12
    frequency:    9.9686654341

- q-position: [    0.0000000,    0.0000000,    0.3700000 ]
  distance:    0.0586350
  band:
  - # 1
    frequency:    1.4381215057
  - # 2
    frequency:    1.4381215057
  - # 3
    frequency:    1.9895253175
  - # 4
    frequency:    1.9895253175
  - # 5
    frequency:    3.3279002670
  - # 6
    frequency:    4.7176955389
  - # 7
    frequency:    7.9543032219
  - # 8
    frequency:    7.9543032219
  - # 9
    frequency:    8.0094531638
  - # 10
    frequency:    8.0094531638
  - # 11
    frequency:    9.2042509164
  - # 12
    frequency:    9.9639619935

- q-position: [    0.0000000,    0.0000000,    0.3800000 ]
  distance:    0.0602197
  band:
  - # 1
    frequency:    1.4677563831
  - # 2
    frequency:    1.4677563831
  - # 3
    frequency:    1.9764783369
  - # 4
    frequency:    1.9764783369
  - # 5
    frequency:    3.3957586644
  - # 6
    frequency:    4.6759640840
  - # 7
    frequency:    7.9555650904
  - # 8
    frequency:    7.9555650904
  - # 9
    frequency:    8.0066731747
  - # 10
    frequency:    8.0066731747
  - # 11
    frequency:    9.2532394906
  - # 12
    frequency:    9.9574923247

- q-position: [    0.0000000,    0.0000000,    0.3900000 ]
  distance:    0.0618044
  band:
  - # 1
    frequency:    1.4967331744
  - # 2
    frequency:    1.4967331744
  - # 3
    frequency:    1.9628352753
  - # 4
    frequency:    1.9628352753
  - # 5
    frequency:    3.4622956677
  - # 6
    frequency:    4.6335192438
  - # 7
    frequency:    7.9568996369
  - # 8
    frequency:    7.9568996369
  - # 9
    frequency:    8.0039179253
  - # 10
    frequency:    8.0039179253
  - # 11
    frequency:    9.3011385098
  - # 12
    frequency:    9.9492178129

- q-position: [    0.0000000,    0.0000000,    0.4000000 ]
  distance:    0.0633891
  band:
  - # 1
    frequency:    1.5250451537
  - # 2
    frequency:    1.5250451537
  - # 3
    frequency:    1.9485850318
  - # 4
    frequency:    1.9485850318
  - # 5
    frequency:    3.5275231615
  - # 6
    frequency:    4.5903371528
  - # 7
    frequency:    7.9583077967
  - # 8
    frequency:    7.9583077967
  - # 9
    frequency:    8.0011922722
  - # 10
    frequency:    8.0011922722
  - # 11
    frequency:    9.3478553039
  - # 12
    frequency:    9.9391051743

- q-position: [    0.0000000,    0.0000000,    0.4100000 ]
  distance:    0.0649739
  band:
  - # 1
    frequency:    1.5526863926
  - # 2
    frequency:    1.5526863926
  - # 3
    frequency:    1.9337170907
  - # 4
    frequency:    1.9337170907
  - # 5
    frequency:    3.5914551023
  - # 6
    frequency:    4.5463921267
  - # 7
    frequency:    7.9597902886
  - # 8
    frequency:    7.9597902886
  - # 9
    frequency:    7.9985008770
  - # 10
    frequency:    7.9985008770
  - # 11
    frequency:    9.3933024166
  - # 12
    frequency:    9.9271264883

- q-position: [    0.0000000,    0.0000000,    0.4200000 ]
  distance:    0.0665586
  band:
  - # 1
    frequency:    1.5796517717
  - # 2
    frequency:    1.5796517717
  - # 3
    frequency:    1.9182215547
  - # 4
    frequency:    1.9182215547
  - # 5
    frequency:    3.6541074433
  - # 6
    frequency:    4.5016569388
  - # 7
    frequency:    7.9613476048
  - # 8
    frequency:    7.9613476048
  - # 9
    frequency:    7.9958481926
  - # 10
    frequency:    7.9958481926
  - # 11
    frequency:    9.4373976897
  - # 12
    frequency:    9.9132592265

- q-position: [    0.0000000,    0.0000000,    0.4300000 ]
  distance:    0.0681433
  band:
  - # 1
    frequency:    1.6059369903
  - # 2
    frequency:    1.6059369903
  - # 3
    frequency:    1.9020891756
  - # 4
    frequency:    1.9020891756
  - # 5
    frequency:    3.7154980524
  - # 6
    frequency:    4.4561030918
  - # 7
    frequency:    7.9629800007
  - # 8
    frequency:    7.9629800007
  - # 9
    frequency:    7.9932384509
  - # 10
    frequency:    7.9932384509
  - # 11
    frequency:    9.4800643335
  - # 12
    frequency:    9.8974862796

- q-position: [    0.0000000,    0.0000000,    0.4400000 ]
  distance:    0.0697281
  band:
  - # 1
    frequency:    1.6315385742
  - # 2
    frequency:    1.6315385742
  - # 3
    frequency:    1.8853113837
  - # 4
    frequency:    1.8853113837
  - # 5
    frequency:    3.7756466215
  - # 6
    frequency:    4.4097010813
  - # 7
    frequency:    7.9646874859
  - # 8
    frequency:    7.9646874859
  - # 9
    frequency:    7.9906756513
  - # 10
    frequency:    7.9906756513
  - # 11
    frequency:    9.5212309842
  - # 12
    frequency:    9.8797959826

- q-position: [    0.0000000,    0.0000000,    0.4500000 ]
  distance:    0.0713128
  band:
  - # 1
    frequency:    1.6564538832
  - # 2
    frequency:    1.6564538832
  - # 3
    frequency:    1.8678803133
  - # 4
    frequency:    1.8678803133
  - # 5
    frequency:    3.8345745690
  - # 6
    frequency:    4.3624206523
  - # 7
    frequency:    7.9664698162
  - # 8
    frequency:    7.9664698162
  - # 9
    frequency:    7.9881635510
  - # 10
    frequency:    7.9881635510
  - # 11
    frequency:    9.5608317509
  - # 12
    frequency:    9.8601821378

- q-position: [    0.0000000,    0.0000000,    0.4600000 ]
  distance:    0.0728975
  band:
  - # 1
    frequency:    1.6806811147
  - # 2
    frequency:    1.6806811147
  - # 3
    frequency:    1.8497888278
  - # 4
    frequency:    1.8497888278
  - # 5
    frequency:    3.8923049314
  - # 6
    frequency:    4.3142310464
  - # 7
    frequency:    7.9683264862
  - # 8
    frequency:    7.9683264862
  - # 9
    frequency:    7.9857056553
  - # 10
    frequency:    7.9857056553
  - # 11
    frequency:    9.5988062514
  - # 12
    frequency:    9.8386440372

- q-position: [    0.0000000,    0.0000000,    0.4700000 ]
  distance:    0.0744822
  band:
  - # 1
    frequency:    1.7042193074
  - # 2
    frequency:    1.7042193074
  - # 3
    frequency:    1.8310305408
  - # 4
    frequency:    1.8310305408
  - # 5
    frequency:    3.9488622470
  - # 6
    frequency:    4.2651012394
  - # 7
    frequency:    7.9702567237
  - # 8
    frequency:    7.9702567237
  - # 9
    frequency:    7.9833052103
  - # 10
    frequency:    7.9833052103
  - # 11
    frequency:    9.6350996403
  - # 12
    frequency:    9.8151864817

- q-position: [    0.0000000,    0.0000000,    0.4800000 ]
  distance:    0.0760670
  band:
  - # 1
    frequency:    1.7270683416
  - # 2
    frequency:    1.7270683416
  - # 3
    frequency:    1.8115998359
  - # 4
    frequency:    1.8115998359
  - # 5
    frequency:    4.0042724284
  - # 6
    frequency:    4.2150001685
  - # 7
    frequency:    7.9722594848
  - # 8
    frequency:    7.9722594848
  - # 9
    frequency:    7.9809651962
  - # 10
    frequency:    7.9809651962
  - # 11
    frequency:    9.6696626283
  - # 12
    frequency:    9.7898197994

- q-position: [    0.0000000,    0.0000000,    0.4900000 ]
  distance:    0.0776517
  band:
  - # 1
    frequency:    1.7492289382
  - # 2
    frequency:    1.7492289382
  - # 3
    frequency:    1.7914918834
  - # 4
    frequency:    1.7914918834
  - # 5
    frequency:    4.0585626252
  - # 6
    frequency:    4.1638969482
  - # 7
    frequency:    7.9743334497
  - # 8
    frequency:    7.9743334497
  - # 9
    frequency:    7.9786883218
  - # 10
    frequency:    7.9786883218
  - # 11
    frequency:    9.7024514949
  - # 12
    frequency:    9.7625598615

- q-position: [    0.0000000,    0.0000000,    0.5000000 ]
  distance:    0.0792364
  band:
  - # 1
    frequency:    1.7707026555
  - # 2
    frequency:    1.7707026555
  - # 3
    frequency:    1.7707026555
  - # 4
    frequency:    1.7707026555
  - # 5
    frequency:    4.1117610759
  - # 6
    frequency:    4.1117610759
  - # 7
    frequency:    7.9764770210
  - # 8
    frequency:    7.9764770210
  - # 9
    frequency:    7.9764770210
  - # 10
    frequency:    7.9764770210
  - # 11
    frequency:    9.7334280953
  - # 12
    frequency:    9.7334280953

- q-position: [    0.0000000,    0.0000000,    0.5000000 ]
  distance:    0.0792364
  band:
  - # 1
    frequency:    1.7707026555
  - # 2
    frequency:    1.7707026555