mesh: [    16,    16,    16 ]
nqpoint: 576    
reciprocal_lattice:
- [   0.25983173,  -0.15001392,   0.00000000 ] # a*
- [   0.25983173,   0.15001392,   0.00000000 ] # b*
- [   0.00000000,   0.00000000,   0.15847285 ] # c*
natom:   4      
lattice:
- [     1.924322328976466,    -3.333024043926510,     0.000000000000000 ] # a
- [     1.924322328976466,     3.333024043926510,     0.000000000000000 ] # b
- [     0.000000000000000,     0.000000000000000,     6.310229253876678 ] # c
points:
- symbol: Zn # 1
  coordinates: [  0.333333333333336,  0.666666666666664,  0.000260133470718 ]
  mass: 65.380000
- symbol: Zn # 2
  coordinates: [  0.666666666666664,  0.333333333333336,  0.500260133470718 ]
  mass: 65.380000
- symbol: S # 3
  coordinates: [  0.333333333333336,  0.666666666666664,  0.374739866529282 ]
  mass: 32.065000
- symbol: S # 4
  coordinates: [  0.666666666666664,  0.333333333333336,  0.874739866529282 ]
  mass: 32.065000

phonon:
- q-position: [    0.0312500,    0.0312500,    0.0312500 ]
  distance_from_gamma:  0.016977805
  weight: 4    
  band:
  - # 1
    frequency:     0.3952587797
  - # 2
    frequency:     0.4271846620
  - # 3
    frequency:     0.8871651791
  - # 4
    frequency:     2.1972912262
  - # 5
    frequency:     2.2667074238
  - # 6
    frequency:     5.6282356008
  - # 7
    frequency:     7.7875327713
  - # 8
    frequency:     7.9585209576
  - # 9
    frequency:     8.0319224358
  - # 10
    frequency:     8.1090507236
  - # 11
    frequency:     8.1197356950
  - # 12
    frequency:     9.6501038339

- q-position: [    0.0937500,    0.0312500,    0.0312500 ]
  distance_from_gamma:  0.034165995
  weight: 8    
  band:
  - # 1
    frequency:     0.8358238526
  - # 2
    frequency:     0.8474252729
  - # 3
    frequency:     1.6999187416
  - # 4
    frequency:     2.2759589236
  - # 5
    frequency:     2.5371008191
  - # 6
    frequency:     5.5531451728
  - # 7
    frequency:     7.8205784695
  - # 8
    frequency:     8.0144822235
  - # 9
    frequency:     8.1638723152
  - # 10
    frequency:     8.2231078748
  - # 11
    frequency:     8.3433736498
  - # 12
    frequency:     9.6354877152

- q-position: [    0.1562500,    0.0312500,    0.0312500 ]
  distance_from_gamma:  0.052437011
  weight: 8    
  band:
  - # 1
    frequency:     1.2531864357
  - # 2
    frequency:     1.2965643572
  - # 3
    frequency:     2.3475323892
  - # 4
    frequency:     2.5695826052
  - # 5
    frequency:     2.9309294578
  - # 6
    frequency:     5.4573663089
  - # 7
    frequency:     7.8892403678
  - # 8
    frequency:     8.0888655291
  - # 9
    frequency:     8.2830701695
  - # 10
    frequency:     8.3868532687
  - # 11
    frequency:     8.7411432766
  - # 12
    frequency:     9.6155936555

- q-position: [    0.2187500,    0.0312500,    0.0312500 ]
  distance_from_gamma:  0.070959287
  weight: 8    
  band:
  - # 1
    frequency:     1.6123655344
  - # 2
    frequency:     1.7350855461
  - # 3
    frequency:     2.5029849645
  - # 4
    frequency:     3.1475001799
  - # 5
    frequency:     3.4743010573
  - # 6
    frequency:     5.4075498317
  - # 7
    frequency:     7.9891273219
  - # 8
    frequency:     8.1534325524
  - # 9
    frequency:     8.4081736087
  - # 10
    frequency:     8.5656625024
  - # 11
    frequency:     9.1427236905
  - # 12
    frequency:     9.6045131377

- q-position: [    0.2812500,    0.0312500,    0.0312500 ]
  distance_from_gamma:  0.089577097
  weight: 8    
  band:
  - # 1
    frequency:     1.8990553606
  - # 2
    frequency:     2.1279884577
  - # 3
    frequency:     2.6357266491
  - # 4
    frequency:     3.3795675032
  - # 5
    frequency:     4.1558018595
  - # 6
    frequency:     5.4675019360
  - # 7
    frequency:     8.1127201556
  - # 8
    frequency:     8.1876488012
  - # 9
    frequency:     8.5239974000
  - # 10
    frequency:     8.7209393605
  - # 11
    frequency:     9.4187017407
  - # 12
    frequency:     9.6485934281

- q-position: [    0.3437500,    0.0312500,    0.0312500 ]
  distance_from_gamma:  0.108241155
  weight: 8    
  band:
  - # 1
    frequency:     2.0963635835
  - # 2
    frequency:     2.4553643722
  - # 3
    frequency:     2.7530474783
  - # 4
    frequency:     3.4156692789
  - # 5
    frequency:     4.7503608919
  - # 6
    frequency:     5.6159197005
  - # 7
    frequency:     8.1841642327
  - # 8
    frequency:     8.2515918611
  - # 9
    frequency:     8.6177028808
  - # 10
    frequency:     8.8359285233
  - # 11
    frequency:     9.4910669699
  - # 12
    frequency:     9.7830165241

- q-position: [    0.4062500,    0.0312500,    0.0312500 ]
  distance_from_gamma:  0.126931062
  weight: 8    
  band:
  - # 1
    frequency:     2.2052144086
  - # 2
    frequency:     2.7021802368
  - # 3
    frequency:     2.8435045148
  - # 4
    frequency:     3.3529039642
  - # 5
    frequency:     5.1919816449
  - # 6
    frequency:     5.7467952683
  - # 7
    frequency:     8.1687907731
  - # 8
    frequency:     8.3691957874
  - # 9
    frequency:     8.6809500533
  - # 10
    frequency:     8.9103625772
  - # 11
    frequency:     9.5018811036
  - # 12
    frequency:     9.8677796471

- q-position: [    0.4687500,    0.0312500,    0.0312500 ]
  distance_from_gamma:  0.145636867
  weight: 8    
  band:
  - # 1
    frequency:     2.2453199741
  - # 2
    frequency:     2.8353956923
  - # 3
    frequency:     2.8870787687
  - # 4
    frequency:     3.2884469376
  - # 5
    frequency:     5.4162420926
  - # 6
    frequency:     5.7920313870
  - # 7
    frequency:     8.1566502026
  - # 8
    frequency:     8.4323109053
  - # 9
    frequency:     8.7091301145
  - # 10
    frequency:     8.9432603525
  - # 11
    frequency:     9.5053117070
  - # 12
    frequency:     9.8900808773

- q-position: [   -0.4687500,    0.0312500,    0.0312500 ]
  distance_from_gamma:  0.136282386
  weight: 8    
  band:
  - # 1
    frequency:     2.2324707946
  - # 2
    frequency:     2.7871403249
  - # 3
    frequency:     2.8723733970
  - # 4
    frequency:     3.3142229478
  - # 5
    frequency:     5.3371070374
  - # 6
    frequency:     5.7797549388
  - # 7
    frequency:     8.1610868129
  - # 8
    frequency:     8.4102215427
  - # 9
    frequency:     8.6996472114
  - # 10
    frequency:     8.9322210811
  - # 11
    frequency:     9.5040458915
  - # 12
    frequency:     9.8840500746

- q-position: [   -0.4062500,    0.0312500,    0.0312500 ]
  distance_from_gamma:  0.117583648
  weight: 8    
  band:
  - # 1
    frequency:     2.1608540595
  - # 2
    frequency:     2.5899669214
  - # 3
    frequency:     2.8027916083
  - # 4
    frequency:     3.3906660505
  - # 5
    frequency:     4.9935188572
  - # 6
    frequency:     5.6901732269
  - # 7
    frequency:     8.1775647090
  - # 8
    frequency:     8.3143413868
  - # 9
    frequency:     8.6534689844
  - # 10
    frequency:     8.8781415874
  - # 11
    frequency:     9.4984157318
  - # 12
    frequency:     9.8353960524

- q-position: [   -0.3437500,    0.0312500,    0.0312500 ]
  distance_from_gamma:  0.098904980
  weight: 8    
  band:
  - # 1
    frequency:     2.0093947789
  - # 2
    frequency:     2.3008082520
  - # 3
    frequency:     2.6967780495
  - # 4
    frequency:     3.4160903494
  - # 5
    frequency:     4.4690450223
  - # 6
    frequency:     5.5365638883
  - # 7
    frequency:     8.1738037038
  - # 8
    frequency:     8.1976728845
  - # 9
    frequency:     8.5742592055
  - # 10
    frequency:     8.7836469473
  - # 11
    frequency:     9.4717979471
  - # 12
    frequency:     9.7140362133

- q-position: [   -0.2812500,    0.0312500,    0.0312500 ]
  distance_from_gamma:  0.080260398
  weight: 8    
  band:
  - # 1
    frequency:     1.7660690049
  - # 2
    frequency:     1.9386782058
  - # 3
    frequency:     2.5709152395
  - # 4
    frequency:     3.2944654479
  - # 5
    frequency:     3.8186827583
  - # 6
    frequency:     5.4222288388
  - # 7
    frequency:     8.0487372274
  - # 8
    frequency:     8.1748247276
  - # 9
    frequency:     8.4681270502
  - # 10
    frequency:     8.6478636852
  - # 11
    frequency:     9.3061731516
  - # 12
    frequency:     9.6135607589

- q-position: [   -0.2187500,    0.0312500,    0.0312500 ]
  distance_from_gamma:  0.061680818
  weight: 8    
  band:
  - # 1
    frequency:     1.4404971011
  - # 2
    frequency:     1.5199587418
  - # 3
    frequency:     2.4318111643
  - # 4
    frequency:     2.9060363273
  - # 5
    frequency:     3.1682443394
  - # 6
    frequency:     5.4218297912
  - # 7
    frequency:     7.9356200303
  - # 8
    frequency:     8.1240438524
  - # 9
    frequency:     8.3458667052
  - # 10
    frequency:     8.4771865708
  - # 11
    frequency:     8.9490300775
  - # 12
    frequency:     9.6074744062

- q-position: [   -0.1562500,    0.0312500,    0.0312500 ]
  distance_from_gamma:  0.043250095
  weight: 8    
  band:
  - # 1
    frequency:     1.0528191637
  - # 2
    frequency:     1.0688974252
  - # 3
    frequency:     2.1041992773
  - # 4
    frequency:     2.3467659075
  - # 5
    frequency:     2.7238731411
  - # 6
    frequency:     5.5042606669
  - # 7
    frequency:     7.8506989904
  - # 8
    frequency:     8.0511327495
  - # 9
    frequency:     8.2217862496
  - # 10
    frequency:     8.3002132077
  - # 11
    frequency:     8.5339274256
  - # 12
    frequency:     9.6255859525

- q-position: [   -0.0937500,    0.0312500,    0.0312500 ]
  distance_from_gamma:  0.025295723
  weight: 8    
  band:
  - # 1
    frequency:     0.6100200000
  - # 2
    frequency:     0.6334091922
  - # 3
    frequency:     1.2826466828
  - # 4
    frequency:     2.2288873596
  - # 5
    frequency:     2.3804463271
  - # 6
    frequency:     5.5963582152
  - # 7
    frequency:     7.7994315615
  - # 8
    frequency:     7.9824696509
  - # 9
    frequency:     8.1070383834
  - # 10
    frequency:     8.1598573836
  - # 11
    frequency:     8.1912321213
  - # 12
    frequency:     9.6439664918

- q-position: [   -0.0312500,    0.0312500,    0.0312500 ]
  distance_from_gamma:  0.010603395
  weight: 4    
  band:
  - # 1
    frequency:     0.2320280388
  - # 2
    frequency:     0.2687223656
  - # 3
    frequency:     0.5866716323
  - # 4
    frequency:     2.1817758614
  - # 5
    frequency:     2.2062673020
  - # 6
    frequency:     5.6450824851
  - # 7
    frequency:     7.7834974644
  - # 8
    frequency:     7.9460974758
  - # 9
    frequency:     7.9736272635
  - # 10
    frequency:     8.0878519088
  - # 11
    frequency:     8.0938059526
  - # 12
    frequency:     9.6533151528

- q-position: [    0.0937500,    0.0937500,    0.0312500 ]
  distance_from_gamma:  0.048969504
  weight: 4    
  band:
  - # 1
    frequency:     1.2081447689
  - # 2
    frequency:     1.2475451218
  - # 3
    frequency:     2.1995987058
  - # 4
    frequency:     2.5473052043
  - # 5
    frequency:     2.8057174335
  - # 6
    frequency:     5.4735489117
  - # 7
    frequency:     7.8732638135
  - # 8
    frequency:     8.1088948725
  - # 9
    frequency:     8.2403466953
  - # 10
    frequency:     8.3526474056
  - # 11
    frequency:     8.6529081460
  - # 12
    frequency:     9.6182432496

- q-position: [    0.1562500,    0.0937500,    0.0312500 ]
  distance_from_gamma:  0.065817665
  weight: 8    
  band:
  - # 1
    frequency:     1.6106254876
  - # 2
    frequency:     1.6384856921
  - # 3
    frequency:     2.4469423977
  - # 4
    frequency:     3.0646143826
  - # 5
    frequency:     3.2019830393
  - # 6
    frequency:     5.4075331663
  - # 7
    frequency:     7.9578594301
  - # 8
    frequency:     8.2036716433
  - # 9
    frequency:     8.3718543818
  - # 10
    frequency:     8.4937365078
  - # 11
    frequency:     9.0167844171
  - # 12
    frequency:     9.5986268298

- q-position: [    0.2187500,    0.0937500,    0.0312500 ]
  distance_from_gamma:  0.083481573
  weight: 8    
  band:
  - # 1
    frequency:     1.9456374261
  - # 2
    frequency:     2.0126683989
  - # 3
    frequency:     2.6195358573
  - # 4
    frequency:     3.3056143059
  - # 5
    frequency:     3.8520621244
  - # 6
    frequency:     5.4172574646
  - # 7
    frequency:     8.0694343114
  - # 8
    frequency:     8.2639039598
  - # 9
    frequency:     8.4983555945
  - # 10
    frequency:     8.6513285444
  - # 11
    frequency:     9.3325161039
  - # 12
    frequency:     9.5942062923

- q-position: [    0.2812500,    0.0937500,    0.0312500 ]
  distance_from_gamma:  0.101536381
  weight: 8    
  band:
  - # 1
    frequency:     2.1847843660
  - # 2
    frequency:     2.3538403228
  - # 3
    frequency:     2.7589981227
  - # 4
    frequency:     3.3941821887
  - # 5
    frequency:     4.4579248680
  - # 6
    frequency:     5.5208141358
  - # 7
    frequency:     8.1922696702
  - # 8
    frequency:     8.2902777228
  - # 9
    frequency:     8.5859091376
  - # 10
    frequency:     8.8062282421
  - # 11
    frequency:     9.4697037704
  - # 12
    frequency:     9.6795917312

- q-position: [    0.3437500,    0.0937500,    0.0312500 ]
  distance_from_gamma:  0.119805492
  weight: 8    
  band:
  - # 1
    frequency:     2.3357194651
  - # 2
    frequency:     2.6275789275
  - # 3
    frequency:     2.8673925084
  - # 4
    frequency:     3.3718382197
  - # 5
    frequency:     4.9527731368
  - # 6
    frequency:     5.6502562403
  - # 7
    frequency:     8.2456984230
  - # 8
    frequency:     8.3575804808
  - # 9
    frequency:     8.6382986802
  - # 10
    frequency:     8.9262316997
  - # 11
    frequency:     9.4725057648
  - # 12
    frequency:     9.7953635910

- q-position: [    0.4062500,    0.0937500,    0.0312500 ]
  distance_from_gamma:  0.138203945
  weight: 8    
  band:
  - # 1
    frequency:     2.4085585017
  - # 2
    frequency:     2.8144724559
  - # 3
    frequency:     2.9322523728
  - # 4
    frequency:     3.3102450138
  - # 5
    frequency:     5.2837415679
  - # 6
    frequency:     5.7188203341
  - # 7
    frequency:     8.2349951762
  - # 8
    frequency:     8.4505440242
  - # 9
    frequency:     8.6636694534
  - # 10
    frequency:     8.9918407437
  - # 11
    frequency:     9.4641728801
  - # 12
    frequency:     9.8458842650

- q-position: [   -0.5312500,    0.0937500,    0.0312500 ]
  distance_from_gamma:  0.147436558
  weight: 8    
  band:
  - # 1
    frequency:     2.4217840191
  - # 2
    frequency:     2.8616452153
  - # 3
    frequency:     2.9428296741
  - # 4
    frequency:     3.2900775827
  - # 5
    frequency:     5.3616135774
  - # 6
    frequency:     5.7254779420
  - # 7
    frequency:     8.2310215171
  - # 8
    frequency:     8.4735314031
  - # 9
    frequency:     8.6682337376
  - # 10
    frequency:     9.0039267072
  - # 11
    frequency:     9.4626608551
  - # 12
    frequency:     9.8532508337

- q-position: [   -0.4687500,    0.0937500,    0.0312500 ]
  distance_from_gamma:  0.128992001
  weight: 8    
  band:
  - # 1
    frequency:     2.3806794161
  - # 2
    frequency:     2.7336510674
  - # 3
    frequency:     2.9066466198
  - # 4
    frequency:     3.3411516861
  - # 5
    frequency:     5.1429227952
  - # 6
    frequency:     5.6952065668
  - # 7
    frequency:     8.2413082042
  - # 8
    frequency:     8.4091980427
  - # 9
    frequency:     8.6539368510
  - # 10
    frequency:     8.9662874910
  - # 11
    frequency:     9.4676238434
  - # 12
    frequency:     9.8280654147

- q-position: [   -0.4062500,    0.0937500,    0.0312500 ]
  distance_from_gamma:  0.110650754
  weight: 8    
  band:
  - # 1
    frequency:     2.2710559093
  - # 2
    frequency:     2.5002172702
  - # 3
    frequency:     2.8174420382
  - # 4
    frequency:     3.3926192826
  - # 5
    frequency:     4.7222352532
  - # 6
    frequency:     5.5886199806
  - # 7
    frequency:     8.2356459010
  - # 8
    frequency:     8.3111208925
  - # 9
    frequency:     8.6159518519
  - # 10
    frequency:     8.8722090279
  - # 11
    frequency:     9.4759232113
  - # 12
    frequency:     9.7447870824

- q-position: [   -0.3437500,    0.0937500,    0.0312500 ]
  distance_from_gamma:  0.092474310
  weight: 8    
  band:
  - # 1
    frequency:     2.0762333069
  - # 2
    frequency:     2.1904584173
  - # 3
    frequency:     2.6930359177
  - # 4
    frequency:     3.3674962995
  - # 5
    frequency:     4.1657798569
  - # 6
    frequency:     5.4598070774
  - # 7
    frequency:     8.1315775059
  - # 8
    frequency:     8.2796903979
  - # 9
    frequency:     8.5470586371
  - # 10
    frequency:     8.7313075495
  - # 11
    frequency:     9.4309265937
  - # 12
    frequency:     9.6202071628

- q-position: [   -0.2812500,    0.0937500,    0.0312500 ]
  distance_from_gamma:  0.074583256
  weight: 8    
  band:
  - # 1
    frequency:     1.7922940068
  - # 2
    frequency:     1.8252015807
  - # 3
    frequency:     2.5379327687
  - # 4
    frequency:     3.2058895958
  - # 5
    frequency:     3.5247992742
  - # 6
    frequency:     5.3998435531
  - # 7
    frequency:     8.0108153738
  - # 8
    frequency:     8.2387620302
  - # 9
    frequency:     8.4393386952
  - # 10
    frequency:     8.5708432794
  - # 11
    frequency:     9.1874146775
  - # 12
    frequency:     9.5920659947

- q-position: [   -0.2187500,    0.0937500,    0.0312500 ]
  distance_from_gamma:  0.057245801
  weight: 8    
  band:
  - # 1
    frequency:     1.4103471776
  - # 2
    frequency:     1.4486818125
  - # 3
    frequency:     2.3416120163
  - # 4
    frequency:     2.8241229899
  - # 5
    frequency:     2.9670558152
  - # 6
    frequency:     5.4348183359
  - # 7
    frequency:     7.9117623080
  - # 8
    frequency:     8.1595946089
  - # 9
    frequency:     8.3023171018
  - # 10
    frequency:     8.4212658018
  - # 11
    frequency:     8.8345458372
  - # 12
    frequency:     9.6081301518

- q-position: [   -0.1562500,    0.0937500,    0.0312500 ]
  distance_from_gamma:  0.041167425
  weight: 8    
  band:
  - # 1
    frequency:     1.0131104325
  - # 2
    frequency:     1.0409711606
  - # 3
    frequency:     1.9754806358
  - # 4
    frequency:     2.3651452805
  - # 5
    frequency:     2.6615769502
  - # 6
    frequency:     5.5153840159
  - # 7
    frequency:     7.8428148074
  - # 8
    frequency:     8.0573273733
  - # 9
    frequency:     8.1933825475
  - # 10
    frequency:     8.2870224546
  - # 11
    frequency:     8.4844707565
  - # 12
    frequency:     9.6276624327

- q-position: [   -0.0937500,    0.0937500,    0.0312500 ]
  distance_from_gamma:  0.028560243
  weight: 4    
  band:
  - # 1
    frequency:     0.6948385999
  - # 2
    frequency:     0.6993299378
  - # 3
    frequency:     1.4463921923
  - # 4
    frequency:     2.2375832258
  - # 5
    frequency:     2.4393356727
  - # 6
    frequency:     5.5813511238
  - # 7
    frequency:     7.8063157555
  - # 8
    frequency:     7.9891591496
  - # 9
    frequency:     8.1490397181
  - # 10
    frequency:     8.1617668073
  - # 11
    frequency:     8.2452168147
  - # 12
    frequency:     9.6410673148

- q-position: [    0.1562500,    0.1562500,    0.0312500 ]
  distance_from_gamma:  0.081348297
  weight: 4    
  band:
  - # 1
    frequency:     1.9604473721
  - # 2
    frequency:     2.0193307009
  - # 3
    frequency:     2.6117882355
  - # 4
    frequency:     3.2749334272
  - # 5
    frequency:     3.7080046037
  - # 6
    frequency:     5.4002018362
  - # 7
    frequency:     8.0551690838
  - # 8
    frequency:     8.3244627600
  - # 9
    frequency:     8.5023334523
  - # 10
    frequency:     8.5952242465
  - # 11
    frequency:     9.2866706751
  - # 12
    frequency:     9.5753943699

- q-position: [    0.2187500,    0.1562500,    0.0312500 ]
  distance_from_gamma:  0.098012148
  weight: 8    
  band:
  - # 1
    frequency:     2.2831746736
  - # 2
    frequency:     2.3321731531
  - # 3
    frequency:     2.7866206251
  - # 4
    frequency:     3.3549516466
  - # 5
    frequency:     4.2310878152
  - # 6
    frequency:     5.4581881365
  - # 7
    frequency:     8.1732843298
  - # 8
    frequency:     8.3854789634
  - # 9
    frequency:     8.6140042055
  - # 10
    frequency:     8.7343384507
  - # 11
    frequency:     9.4766341266
  - # 12
    frequency:     9.5705401098

- q-position: [    0.2812500,    0.1562500,    0.0312500 ]
  distance_from_gamma:  0.115319004
  weight: 8    
  band:
  - # 1
    frequency:     2.5230454483
  - # 2
    frequency:     2.5870675485
  - # 3
    frequency:     2.9317896071
  - # 4
    frequency:     3.3546542949
  - # 5
    frequency:     4.6996457079
  - # 6
    frequency:     5.5490957330
  - # 7
    frequency:     8.2860898512
  - # 8
    frequency:     8.4138435477
  - # 9
    frequency:     8.6538481907
  - # 10
    frequency:     8.9031519010
  - # 11
    frequency:     9.4644458071
  - # 12
    frequency:     9.6835543034

- q-position: [    0.3437500,    0.1562500,    0.0312500 ]
  distance_from_gamma:  0.133018117
  weight: 8    
  band:
  - # 1
    frequency:     2.6553303688
  - # 2
    frequency:     2.7926362461
  - # 3
    frequency:     3.0230000233
  - # 4
    frequency:     3.3192929127
  - # 5
    frequency:     5.0694767202
  - # 6
    frequency:     5.6083123378
  - # 7
    frequency:     8.3283432551
  - # 8
    frequency:     8.4880461910
  - # 9
    frequency:     8.6493110338
  - # 10
    frequency:     9.0302950259
  - # 11
    frequency:     9.4143120595
  - # 12
    frequency:     9.7629152816

- q-position: [    0.4062500,    0.1562500,    0.0312500 ]
  distance_from_gamma:  0.150971593
  weight: 8    
  band:
  - # 1
    frequency:     2.7062987709
  - # 2
    frequency:     2.9108724024
  - # 3
    frequency:     3.0417791882
  - # 4
    frequency:     3.2966241242
  - # 5
    frequency:     5.2722151910
  - # 6
    frequency:     5.6088393893
  - # 7
    frequency:     8.3289964477
  - # 8
    frequency:     8.5736315604
  - # 9
    frequency:     8.6141997639
  - # 10
    frequency:     9.0861348005
  - # 11
    frequency:     9.3853310942
  - # 12
    frequency:     9.7918272286

- q-position: [   -0.5312500,    0.1562500,    0.0312500 ]
  distance_from_gamma:  0.141969059
  weight: 8    
  band:
  - # 1
    frequency:     2.6897367697
  - # 2
    frequency:     2.8663215701
  - # 3
    frequency:     3.0403406794
  - # 4
    frequency:     3.3042889240
  - # 5
    frequency:     5.1985262993
  - # 6
    frequency:     5.6134265060
  - # 7
    frequency:     8.3295969310
  - # 8
    frequency:     8.5349790728
  - # 9
    frequency:     8.6347544230
  - # 10
    frequency:     9.0677417593
  - # 11
    frequency:     9.3954201965
  - # 12
    frequency:     9.7826558890

- q-position: [   -0.4687500,    0.1562500,    0.0312500 ]
  distance_from_gamma:  0.124129928
  weight: 8    
  band:
  - # 1
    frequency:     2.6007973610
  - # 2
    frequency:     2.6981858473
  - # 3
    frequency:     2.9858303172
  - # 4
    frequency:     3.3381034028
  - # 5
    frequency:     4.9001072867
  - # 6
    frequency:     5.5862684244
  - # 7
    frequency:     8.3178713511
  - # 8
    frequency:     8.4432082639
  - # 9
    frequency:     8.6561332202
  - # 10
    frequency:     8.9745018302
  - # 11
    frequency:     9.4388341293
  - # 12
    frequency:     9.7304572452

- q-position: [   -0.4062500,    0.1562500,    0.0312500 ]
  distance_from_gamma:  0.106604503
  weight: 8    
  band:
  - # 1
    frequency:     2.4176923714
  - # 2
    frequency:     2.4640842566
  - # 3
    frequency:     2.8644693669
  - # 4
    frequency:     3.3623651726
  - # 5
    frequency:     4.4747538314
  - # 6
    frequency:     5.5034912250
  - # 7
    frequency:     8.2337450624
  - # 8
    frequency:     8.3991945483
  - # 9
    frequency:     8.6406618196
  - # 10
    frequency:     8.8207840510
  - # 11
    frequency:     9.4846191336
  - # 12
    frequency:     9.6236220573

- q-position: [   -0.3437500,    0.1562500,    0.0312500 ]
  distance_from_gamma:  0.089577097
  weight: 8    
  band:
  - # 1
    frequency:     2.1279106439
  - # 2
    frequency:     2.1854532490
  - # 3
    frequency:     2.7010386300
  - # 4
    frequency:     3.3270504842
  - # 5
    frequency:     3.9738109996
  - # 6
    frequency:     5.4216973949
  - # 7
    frequency:     8.1125229044
  - # 8
    frequency:     8.3625881917
  - # 9
    frequency:     8.5684502449
  - # 10
    frequency:     8.6557392165
  - # 11
    frequency:     9.4002965659
  - # 12
    frequency:     9.5641652584

- q-position: [   -0.2812500,    0.1562500,    0.0312500 ]
  distance_from_gamma:  0.073395151
  weight: 8    
  band:
  - # 1
    frequency:     1.7865738703
  - # 2
    frequency:     1.8346168095
  - # 3
    frequency:     2.5247077400
  - # 4
    frequency:     3.1950084896
  - # 5
    frequency:     3.4410344380
  - # 6
    frequency:     5.3960493203
  - # 7
    frequency:     8.0032194254
  - # 8
    frequency:     8.2694108829
  - # 9
    frequency:     8.4325478421
  - # 10
    frequency:     8.5442835110
  - # 11
    frequency:     9.1562079722
  - # 12
    frequency:     9.5876747541

- q-position: [   -0.2187500,    0.1562500,    0.0312500 ]
  distance_from_gamma:  0.058761344
  weight: 8    
  band:
  - # 1
    frequency:     1.4289171063
  - # 2
    frequency:     1.4536199076
  - # 3
    frequency:     2.3858481845
  - # 4
    frequency:     2.8337644655
  - # 5
    frequency:     3.0499750054
  - # 6
    frequency:     5.4299764841
  - # 7
    frequency:     7.9197731881
  - # 8
    frequency:     8.1396335267
  - # 9
    frequency:     8.3221858530
  - # 10
    frequency:     8.4409964073
  - # 11
    frequency:     8.8756247391
  - # 12
    frequency:     9.6079415347

- q-position: [   -0.1562500,    0.1562500,    0.0312500 ]
  distance_from_gamma:  0.047140200
  weight: 4    
  band:
  - # 1
    frequency:     1.1213534550
  - # 2
    frequency:     1.1649838026
  - # 3
    frequency:     2.3133439933
  - # 4
    frequency:     2.3389439933
  - # 5
    frequency:     2.8200792625
  - # 6
    frequency:     5.4837716913
  - # 7
    frequency:     7.8662328927
  - # 8
    frequency:     8.0588224532
  - # 9
    frequency:     8.2521877508
  - # 10
    frequency:     8.3359896411
  - # 11
    frequency:     8.6234161578
  - # 12
    frequency:     9.6215177957

- q-position: [    0.2187500,    0.2187500,    0.0312500 ]
  distance_from_gamma:  0.113784203
  weight: 4    
  band:
  - # 1
    frequency:     2.5524487716
  - # 2
    frequency:     2.6401979361
  - # 3
    frequency:     2.9723392490
  - # 4
    frequency:     3.3356991668
  - # 5
    frequency:     4.5811309489
  - # 6
    frequency:     5.5063250798
  - # 7
    frequency:     8.2890353665
  - # 8
    frequency:     8.4379495169
  - # 9
    frequency:     8.7633262693
  - # 10
    frequency:     8.8074676943
  - # 11
    frequency:     9.4961872518
  - # 12
    frequency:     9.6028510316

- q-position: [    0.2812500,    0.2187500,    0.0312500 ]
  distance_from_gamma:  0.130347858
  weight: 8    
  band:
  - # 1
    frequency:     2.7697171114
  - # 2
    frequency:     2.8598328824
  - # 3
    frequency:     3.1279558508
  - # 4
    frequency:     3.2938044206
  - # 5
    frequency:     4.8895340880
  - # 6
    frequency:     5.5241622231
  - # 7
    frequency:     8.3802541128
  - # 8
    frequency:     8.4657702307
  - # 9
    frequency:     8.7876773197
  - # 10
    frequency:     8.9631941640
  - # 11
    frequency:     9.4173254333
  - # 12
    frequency:     9.6758891902

- q-position: [    0.3437500,    0.2187500,    0.0312500 ]
  distance_from_gamma:  0.147436558
  weight: 8    
  band:
  - # 1
    frequency:     2.9245762474
  - # 2
    frequency:     2.9812190222
  - # 3
    frequency:     3.1540753647
  - # 4
    frequency:     3.3115864950
  - # 5
    frequency:     5.1252139794
  - # 6
    frequency:     5.4916426260
  - # 7
    frequency:     8.4012065926
  - # 8
    frequency:     8.5245865792
  - # 9
    frequency:     8.7660105395
  - # 10
    frequency:     9.1002995737
  - # 11
    frequency:     9.3248192503
  - # 12
    frequency:     9.7214007718

- q-position: [   -0.5937500,    0.2187500,    0.0312500 ]
  distance_from_gamma:  0.156124139
  weight: 8    
  band:
  - # 1
    frequency:     2.9653409538
  - # 2
    frequency:     3.0091263245
  - # 3
    frequency:     3.1334291318
  - # 4
    frequency:     3.3290163735
  - # 5
    frequency:     5.1898595785
  - # 6
    frequency:     5.4697390003
  - # 7
    frequency:     8.4023975056
  - # 8
    frequency:     8.5415547553
  - # 9
    frequency:     8.7586344257
  - # 10
    frequency:     9.1423876881
  - # 11
    frequency:     9.2901530962
  - # 12
    frequency:     9.7309251456

- q-position: [   -0.5312500,    0.2187500,    0.0312500 ]
  distance_from_gamma:  0.138838555
  weight: 8    
  band:
  - # 1
    frequency:     2.8562327541
  - # 2
    frequency:     2.9322157549
  - # 3
    frequency:     3.1622664401
  - # 4
    frequency:     3.2913137542
  - # 5
    frequency:     5.0199149680
  - # 6
    frequency:     5.5136175025
  - # 7
    frequency:     8.3965656941
  - # 8
    frequency:     8.4953510954
  - # 9
    frequency:     8.7776489458
  - # 10
    frequency:     9.0378759528
  - # 11
    frequency:     9.3705828866
  - # 12
    frequency:     9.7027774295

- q-position: [   -0.4687500,    0.2187500,    0.0312500 ]
  distance_from_gamma:  0.121986874
  weight: 8    
  band:
  - # 1
    frequency:     2.6680519988
  - # 2
    frequency:     2.7624552572
  - # 3
    frequency:     3.0583712785
  - # 4
    frequency:     3.3139341884
  - # 5
    frequency:     4.7417729039
  - # 6
    frequency:     5.5210998511
  - # 7
    frequency:     8.3422286851
  - # 8
    frequency:     8.4487095459
  - # 9
    frequency:     8.7884975534
  - # 10
    frequency:     8.8809309516
  - # 11
    frequency:     9.4605196235
  - # 12
    frequency:     9.6419241736

- q-position: [   -0.4062500,    0.2187500,    0.0312500 ]
  distance_from_gamma:  0.105776680