# Thermal properties / unit cell (natom)

unit:
  temperature:   K
  free_energy:   kJ/mol
  entropy:       J/K/mol
  heat_capacity: J/K/mol

natom: 4    
cutoff_frequency: 0.00000
num_modes: 49152
num_integrated_modes: 49152

zero_point_energy:      14.6530462

thermal_properties:
- temperature:         0.0000000
  free_energy:        14.6530462
  entropy:             0.0000000
  heat_capacity:       0.0000000
  energy:             14.6530462

- temperature:        10.0000000
  free_energy:        14.6528534
  entropy:             0.0789063
  heat_capacity:       0.2544265
  energy:             14.6536425

- temperature:        20.0000000
  free_energy:        14.6489583
  entropy:             0.9515926
  heat_capacity:       3.4591402
  energy:             14.6679901

- temperature:        30.0000000
  free_energy:        14.6276227
  entropy:             3.6075202
  heat_capacity:      10.4015786
  energy:             14.7358484

- temperature:        40.0000000
  free_energy:        14.5723138
  entropy:             7.6131815
  heat_capacity:      17.7102159
  energy:             14.8768411

- temperature:        50.0000000
  free_energy:        14.4731431
  entropy:            12.2962564
  heat_capacity:      24.4202954
  energy:             15.0879559

- temperature:        60.0000000
  free_energy:        14.3253095
  entropy:            17.3092554
  heat_capacity:      30.7114643
  energy:             15.3638648

- temperature:        70.0000000
  free_energy:        14.1263731
  entropy:            22.4998205
  heat_capacity:      36.7488631
  energy:             15.7013605

- temperature:        80.0000000
  free_energy:        13.8749917
  entropy:            27.7874142
  heat_capacity:      42.5268241
  energy:             16.0979849

- temperature:        90.0000000
  free_energy:        13.5704954
  entropy:            33.1141090
  heat_capacity:      47.9656469
  energy:             16.5507652

- temperature:       100.0000000
  free_energy:        13.2127407
  entropy:            38.4317381
  heat_capacity:      52.9907114
  energy:             17.0559145

- temperature:       110.0000000
  free_energy:        12.8020251
  entropy:            43.7003234
  heat_capacity:      57.5613012
  energy:             17.6090606

- temperature:       120.0000000
  free_energy:        12.3390038
  entropy:            48.8883079
  heat_capacity:      61.6707733
  energy:             18.2056007

- temperature:       130.0000000
  free_energy:        11.8246066
  entropy:            53.9722350
  heat_capacity:      65.3370195
  energy:             18.8409971

- temperature:       140.0000000
  free_energy:        11.2599610
  entropy:            58.9357832
  heat_capacity:      68.5923325
  energy:             19.5109706

- temperature:       150.0000000
  free_energy:        10.6463275
  entropy:            63.7685075
  heat_capacity:      71.4756430
  energy:             20.2116036

- temperature:       160.0000000
  free_energy:         9.9850468
  entropy:            68.4645738
  heat_capacity:      74.0274199
  energy:             20.9393786

- temperature:       170.0000000
  free_energy:         9.2774996
  entropy:            73.0216332
  heat_capacity:      76.2866747
  energy:             21.6911773

- temperature:       180.0000000
  free_energy:         8.5250770
  entropy:            77.4398913
  heat_capacity:      78.2894088
  energy:             22.4642574

- temperature:       190.0000000
  free_energy:         7.7291579
  entropy:            81.7213723
  heat_capacity:      80.0679642
  energy:             23.2562186

- temperature:       200.0000000
  free_energy:         6.8910946
  entropy:            85.8693522
  heat_capacity:      81.6509074
  energy:             24.0649651

- temperature:       210.0000000
  free_energy:         6.0122022
  entropy:            89.8879337
  heat_capacity:      83.0631997
  energy:             24.8886683

- temperature:       220.0000000
  free_energy:         5.0937519
  entropy:            93.7817311
  heat_capacity:      84.3265074
  energy:             25.7257328

- temperature:       230.0000000
  free_energy:         4.1369672
  entropy:            97.5556406
  heat_capacity:      85.4595648
  energy:             26.5747646

- temperature:       240.0000000
  free_energy:         3.1430220
  entropy:           101.2146750
  heat_capacity:      86.4785389
  energy:             27.4345440

- temperature:       250.0000000
  free_energy:         2.1130399
  entropy:           104.7638473
  heat_capacity:      87.3973736
  energy:             28.3040018

- temperature:       260.0000000
  free_energy:         1.0480948
  entropy:           108.2080890
  heat_capacity:      88.2280997
  energy:             29.1821980

- temperature:       270.0000000
  free_energy:        -0.0507881
  entropy:           111.5521960
  heat_capacity:      88.9811088
  energy:             30.0683049

- temperature:       280.0000000
  free_energy:        -1.1826307
  entropy:           114.8007927
  heat_capacity:      89.6653906
  energy:             30.9615912

- temperature:       290.0000000
  free_energy:        -2.3465004
  entropy:           117.9583104
  heat_capacity:      90.2887371
  energy:             31.8614097

- temperature:       300.0000000
  free_energy:        -3.5415075
  entropy:           121.0289765
  heat_capacity:      90.8579161
  energy:             32.7671855

- temperature:       310.0000000
  free_energy:        -4.7668038
  entropy:           124.0168095
  heat_capacity:      91.3788199
  energy:             33.6784071

- temperature:       320.0000000
  free_energy:        -6.0215803
  entropy:           126.9256202
  heat_capacity:      91.8565910
  energy:             34.5946182

- temperature:       330.0000000
  free_energy:        -7.3050648
  entropy:           129.7590154
  heat_capacity:      92.2957282
  energy:             35.5154102

- temperature:       340.0000000
  free_energy:        -8.6165206
  entropy:           132.5204051
  heat_capacity:      92.7001771
  energy:             36.4404172

- temperature:       350.0000000
  free_energy:        -9.9552437
  entropy:           135.2130099
  heat_capacity:      93.0734069
  energy:             37.3693098

- temperature:       360.0000000
  free_energy:       -11.3205616
  entropy:           137.8398698
  heat_capacity:      93.4184755
  energy:             38.3017915

- temperature:       370.0000000
  free_energy:       -12.7118315
  entropy:           140.4038539
  heat_capacity:      93.7380846
  energy:             39.2375945

- temperature:       380.0000000
  free_energy:       -14.1284382
  entropy:           142.9076697
  heat_capacity:      94.0346273
  energy:             40.1764763

- temperature:       390.0000000
  free_energy:       -15.5697929
  entropy:           145.3538720
  heat_capacity:      94.3102280
  energy:             41.1182172

- temperature:       400.0000000
  free_energy:       -17.0353316
  entropy:           147.7448725
  heat_capacity:      94.5667772
  energy:             42.0626174

- temperature:       410.0000000
  free_energy:       -18.5245139
  entropy:           150.0829483
  heat_capacity:      94.8059608
  energy:             43.0094949

- temperature:       420.0000000
  free_energy:       -20.0368214
  entropy:           152.3702503
  heat_capacity:      95.0292857
  energy:             43.9586838

- temperature:       430.0000000
  free_energy:       -21.5717565
  entropy:           154.6088110
  heat_capacity:      95.2381018
  energy:             44.9100323

- temperature:       440.0000000
  free_energy:       -23.1288415
  entropy:           156.8005523
  heat_capacity:      95.4336204
  energy:             45.8634015

- temperature:       450.0000000
  free_energy:       -24.7076175
  entropy:           158.9472923
  heat_capacity:      95.6169313
  energy:             46.8186640

- temperature:       460.0000000
  free_energy:       -26.3076431
  entropy:           161.0507518
  heat_capacity:      95.7890161
  energy:             47.7757027

- temperature:       470.0000000
  free_energy:       -27.9284937
  entropy:           163.1125608
  heat_capacity:      95.9507616
  energy:             48.7344099

- temperature:       480.0000000
  free_energy:       -29.5697607
  entropy:           165.1342642
  heat_capacity:      96.1029694
  energy:             49.6946861

- temperature:       490.0000000
  free_energy:       -31.2310502
  entropy:           167.1173267
  heat_capacity:      96.2463662
  energy:             50.6564399

- temperature:       500.0000000
  free_energy:       -32.9119830
  entropy:           169.0631387
  heat_capacity:      96.3816114
  energy:             51.6195863

- temperature:       510.0000000
  free_energy:       -34.6121932
  entropy:           170.9730200
  heat_capacity:      96.5093048
  energy:             52.5840469

- temperature:       520.0000000
  free_energy:       -36.3313279
  entropy:           172.8482248
  heat_capacity:      96.6299925
  energy:             53.5497491

- temperature:       530.0000000
  free_energy:       -38.0690461
  entropy:           174.6899457
  heat_capacity:      96.7441726
  energy:             54.5166251

- temperature:       540.0000000
  free_energy:       -39.8250189
  entropy:           176.4993172
  heat_capacity:      96.8523002
  energy:             55.4846123

- temperature:       550.0000000
  free_energy:       -41.5989282
  entropy:           178.2774192
  heat_capacity:      96.9547918
  energy:             56.4536523

- temperature:       560.0000000
  free_energy:       -43.3904665
  entropy:           180.0252807
  heat_capacity:      97.0520288
  energy:             57.4236907

- temperature:       570.0000000
  free_energy:       -45.1993363
  entropy:           181.7438823
  heat_capacity:      97.1443614
  energy:             58.3946766

- temperature:       580.0000000
  free_energy:       -47.0252498
  entropy:           183.4341593
  heat_capacity:      97.2321112
  energy:             59.3665626

- temperature:       590.0000000
  free_energy:       -48.8679281
  entropy:           185.0970044
  heat_capacity:      97.3155740
  energy:             60.3393045

- temperature:       600.0000000
  free_energy:       -50.7271013
  entropy:           186.7332700
  heat_capacity:      97.3950226
  energy:             61.3128607

- temperature:       610.0000000
  free_energy:       -52.6025076
  entropy:           188.3437705
  heat_capacity:      97.4707084
  energy:             62.2871924

- temperature:       620.0000000
  free_energy:       -54.4938934
  entropy:           189.9292847
  heat_capacity:      97.5428635
  energy:             63.2622631

- temperature:       630.0000000
  free_energy:       -56.4010125
  entropy:           191.4905573
  heat_capacity:      97.6117028
  energy:             64.2380386

- temperature:       640.0000000
  free_energy:       -58.3236261
  entropy:           193.0283014
  heat_capacity:      97.6774249
  energy:             65.2144868

- temperature:       650.0000000
  free_energy:       -60.2615024
  entropy:           194.5431996
  heat_capacity:      97.7402141
  energy:             66.1915774

- temperature:       660.0000000
  free_energy:       -62.2144161
  entropy:           196.0359060
  heat_capacity:      97.8002411
  energy:             67.1692819

- temperature:       670.0000000
  free_energy:       -64.1821486
  entropy:           197.5070479
  heat_capacity:      97.8576646
  energy:             68.1475735

- temperature:       680.0000000
  free_energy:       -66.1644872
  entropy:           198.9572267
  heat_capacity:      97.9126322
  energy:             69.1264270

- temperature:       690.0000000
  free_energy:       -68.1612252
  entropy:           200.3870197
  heat_capacity:      97.9652812
  energy:             70.1058184

- temperature:       700.0000000
  free_energy:       -70.1721615
  entropy:           201.7969811
  heat_capacity:      98.0157393
  energy:             71.0857253

- temperature:       710.0000000
  free_energy:       -72.1971005
  entropy:           203.1876434
  heat_capacity:      98.0641259
  energy:             72.0661263

- temperature:       720.0000000
  free_energy:       -74.2358517
  entropy:           204.5595181
  heat_capacity:      98.1105522
  energy:             73.0470013

- temperature:       730.0000000
  free_energy:       -76.2882299
  entropy:           205.9130973
  heat_capacity:      98.1551222
  energy:             74.0283312

- temperature:       740.0000000
  free_energy:       -78.3540543
  entropy:           207.2488542
  heat_capacity:      98.1979329
  energy:             75.0100979

- temperature:       750.0000000
  free_energy:       -80.4331491
  entropy:           208.5672444
  heat_capacity:      98.2390754
  energy:             75.9922842

- temperature:       760.0000000
  free_energy:       -82.5253427
  entropy:           209.8687064
  heat_capacity:      98.2786347
  energy:             76.9748741

- temperature:       770.0000000
  free_energy:       -84.6304682
  entropy:           211.1536625
  heat_capacity:      98.3166908
  energy:             77.9578519

- temperature:       780.0000000
  free_energy:       -86.7483623
  entropy:           212.4225198
  heat_capacity:      98.3533185
  energy:             78.9412031

- temperature:       790.0000000
  free_energy:       -88.8788662
  entropy:           213.6756709
  heat_capacity:      98.3885880
  energy:             79.9249138

- temperature:       800.0000000
  free_energy:       -91.0218247
  entropy:           214.9134941
  heat_capacity:      98.4225655
  energy:             80.9089706

- temperature:       810.0000000
  free_energy:       -93.1770862
  entropy:           216.1363546
  heat_capacity:      98.4553129
  energy:             81.8933610

- temperature:       820.0000000
  free_energy:       -95.3445031
  entropy:           217.3446049
  heat_capacity:      98.4868888
  energy:             82.8780729

- temperature:       830.0000000
  free_energy:       -97.5239308
  entropy:           218.5385853
  heat_capacity:      98.5173481
  energy:             83.8630950

- temperature:       840.0000000
  free_energy:       -99.7152283
  entropy:           219.7186246
  heat_capacity:      98.5467427
  energy:             84.8484164

- temperature:       850.0000000
  free_energy:      -101.9182578
  entropy:           220.8850404
  heat_capacity:      98.5751213
  energy:             85.8340265

- temperature:       860.0000000
  free_energy:      -104.1328847
  entropy:           222.0381398
  heat_capacity:      98.6025303
  energy:             86.8199156

- temperature:       870.0000000
  free_energy:      -106.3589772
  entropy:           223.1782198
  heat_capacity:      98.6290129
  energy:             87.8060740

- temperature:       880.0000000
  free_energy:      -108.5964067
  entropy:           224.3055677
  heat_capacity:      98.6546105
  energy:             88.7924929

- temperature:       890.0000000
  free_energy:      -110.8450471
  entropy:           225.4204612
  heat_capacity:      98.6793618
  energy:             89.7791634

- temperature:       900.0000000
  free_energy:      -113.1047753
  entropy:           226.5231696
  heat_capacity:      98.7033037
  energy:             90.7660774

- temperature:       910.0000000
  free_energy:      -115.3754707
  entropy:           227.6139534
  heat_capacity:      98.7264708
  energy:             91.7532269

- temperature:       920.0000000
  free_energy:      -117.6570154
  entropy:           228.6930650
  heat_capacity:      98.7488963
  energy:             92.7406043

- temperature:       930.0000000
  free_energy:      -119.9492939
  entropy:           229.7607488
  heat_capacity:      98.7706113
  energy:             93.7282025

- temperature:       940.0000000
  free_energy:      -122.2521931
  entropy:           230.8172419
  heat_capacity:      98.7916453
  energy:             94.7160143

- temperature:       950.0000000
  free_energy:      -124.5656022
  entropy:           231.8627741
  heat_capacity:      98.8120266
  energy:             95.7040332

- temperature:       960.0000000
  free_energy:      -126.8894128
  entropy:           232.8975683
  heat_capacity:      98.8317818
  energy:             96.6922527

- temperature:       970.0000000
  free_energy:      -129.2235185
  entropy:           233.9218406
  heat_capacity:      98.8509361
  energy:             97.6806668

- temperature:       980.0000000
  free_energy:      -131.5678152
  entropy:           234.9358008
  heat_capacity:      98.8695137
  energy:             98.6692695

- temperature:       990.0000000
  free_energy:      -133.9222009
  entropy:           235.9396526
  heat_capacity:      98.8875373
  energy:             99.6580553

- temperature:      1000.0000000
  free_energy:      -136.2865753
  entropy:           236.9335938
  heat_capacity:      98.9050288
  energy:            100.6470185
