   9   9   0   0
  0.1263398E+02  0.4916558E-09  0.4916558E-09  0.5431625E-09  0.5000000E-15
   1.0000000000000000E-004
  CAR 
 unknown system                          
     19.69948767    -20.16287453  301      1.24653583      1.00000000
    -20.163  0.0000E+00  0.0000E+00
    -20.030  0.0000E+00  0.0000E+00
    -19.897  0.0000E+00  0.0000E+00
    -19.764  0.0000E+00  0.0000E+00
    -19.631  0.0000E+00  0.0000E+00
    -19.499  0.0000E+00  0.0000E+00
    -19.366  0.0000E+00  0.0000E+00
    -19.233  0.0000E+00  0.0000E+00
    -19.100  0.0000E+00  0.0000E+00
    -18.967  0.0000E+00  0.0000E+00
    -18.834  0.0000E+00  0.0000E+00
    -18.701  0.0000E+00  0.0000E+00
    -18.568  0.0000E+00  0.0000E+00
    -18.436  0.5056E-05  0.6719E-06
    -18.303  0.1496E+00  0.1988E-01
    -18.170  0.1238E+01  0.1844E+00
    -18.037  0.2041E+01  0.4555E+00
    -17.904  0.3857E+01  0.9681E+00
    -17.771  0.6788E+01  0.1870E+01
    -17.638  0.2032E+01  0.2140E+01
    -17.505  0.9521E+00  0.2267E+01
    -17.373  0.5424E+01  0.2987E+01
    -17.240  0.5669E+01  0.3740E+01
    -17.107  0.8995E+00  0.3860E+01
    -16.974  0.1071E+01  0.4002E+01
    -16.841  0.3009E+01  0.4402E+01
    -16.708  0.7794E+01  0.5438E+01
    -16.575  0.1085E+01  0.5582E+01
    -16.442  0.1794E+01  0.5820E+01
    -16.310  0.1350E+01  0.6000E+01
    -16.177  0.3646E+02  0.1084E+02
    -16.044  0.8696E+01  0.1200E+02
    -15.911  0.7071E-06  0.1200E+02
    -15.778  0.0000E+00  0.1200E+02
    -15.645  0.0000E+00  0.1200E+02
    -15.512  0.0000E+00  0.1200E+02
    -15.379  0.0000E+00  0.1200E+02
    -15.247  0.0000E+00  0.1200E+02
    -15.114  0.0000E+00  0.1200E+02
    -14.981  0.0000E+00  0.1200E+02
    -14.848  0.0000E+00  0.1200E+02
    -14.715  0.0000E+00  0.1200E+02
    -14.582  0.0000E+00  0.1200E+02
    -14.449  0.0000E+00  0.1200E+02
    -14.316  0.0000E+00  0.1200E+02
    -14.184  0.0000E+00  0.1200E+02
    -14.051  0.0000E+00  0.1200E+02
    -13.918  0.0000E+00  0.1200E+02
    -13.785  0.0000E+00  0.1200E+02
    -13.652  0.0000E+00  0.1200E+02
    -13.519  0.0000E+00  0.1200E+02
    -13.386  0.0000E+00  0.1200E+02
    -13.253  0.0000E+00  0.1200E+02
    -13.121  0.0000E+00  0.1200E+02
    -12.988  0.0000E+00  0.1200E+02
    -12.855  0.0000E+00  0.1200E+02
    -12.722  0.0000E+00  0.1200E+02
    -12.589  0.0000E+00  0.1200E+02
    -12.456  0.0000E+00  0.1200E+02
    -12.323  0.0000E+00  0.1200E+02
    -12.190  0.0000E+00  0.1200E+02
    -12.058  0.0000E+00  0.1200E+02
    -11.925  0.0000E+00  0.1200E+02
    -11.792  0.0000E+00  0.1200E+02
    -11.659  0.0000E+00  0.1200E+02
    -11.526  0.0000E+00  0.1200E+02
    -11.393  0.0000E+00  0.1200E+02
    -11.260  0.0000E+00  0.1200E+02
    -11.127  0.0000E+00  0.1200E+02
    -10.995  0.0000E+00  0.1200E+02
    -10.862  0.0000E+00  0.1200E+02
    -10.729  0.0000E+00  0.1200E+02
    -10.596  0.0000E+00  0.1200E+02
    -10.463  0.0000E+00  0.1200E+02
    -10.330  0.0000E+00  0.1200E+02
    -10.197  0.0000E+00  0.1200E+02
    -10.064  0.0000E+00  0.1200E+02
     -9.932  0.0000E+00  0.1200E+02
     -9.799  0.0000E+00  0.1200E+02
     -9.666  0.0000E+00  0.1200E+02
     -9.533  0.0000E+00  0.1200E+02
     -9.400  0.0000E+00  0.1200E+02
     -9.267  0.0000E+00  0.1200E+02
     -9.134  0.0000E+00  0.1200E+02
     -9.001  0.0000E+00  0.1200E+02
     -8.869  0.0000E+00  0.1200E+02
     -8.736  0.0000E+00  0.1200E+02
     -8.603  0.0000E+00  0.1200E+02
     -8.470  0.0000E+00  0.1200E+02
     -8.337  0.2399E-04  0.1200E+02
     -8.204  0.1499E+00  0.1202E+02
     -8.071  0.5820E-03  0.1202E+02
     -7.938  0.1114E+01  0.1217E+02
     -7.806  0.9114E-01  0.1218E+02
     -7.673  0.1803E+01  0.1242E+02
     -7.540  0.6252E-02  0.1242E+02
     -7.407  0.2026E+01  0.1269E+02
     -7.274  0.5987E+01  0.1349E+02
     -7.141  0.3096E+01  0.1390E+02
     -7.008  0.2909E-01  0.1390E+02
     -6.875  0.1788E+01  0.1414E+02
     -6.743  0.1460E-01  0.1414E+02
     -6.610  0.4010E-09  0.1414E+02
     -6.477  0.5022E+00  0.1421E+02
     -6.344  0.1615E+01  0.1442E+02
     -6.211  0.3209E+01  0.1485E+02
     -6.078  0.4952E+01  0.1551E+02
     -5.945  0.1763E+01  0.1574E+02
     -5.812  0.9010E+00  0.1586E+02
     -5.680  0.1885E-02  0.1586E+02
     -5.547  0.1835E-02  0.1586E+02
     -5.414  0.1731E+01  0.1609E+02
     -5.281  0.3827E+01  0.1660E+02
     -5.148  0.1968E+01  0.1686E+02
     -5.015  0.3606E+01  0.1734E+02
     -4.882  0.6333E-02  0.1734E+02
     -4.749  0.2918E+01  0.1773E+02
     -4.617  0.7246E+00  0.1782E+02
     -4.484  0.5646E+00  0.1790E+02
     -4.351  0.7610E+01  0.1891E+02
     -4.218  0.1113E+02  0.2039E+02
     -4.085  0.5077E+01  0.2106E+02
     -3.952  0.7576E+01  0.2207E+02
     -3.819  0.4069E+01  0.2261E+02
     -3.686  0.6558E+01  0.2348E+02
     -3.554  0.2967E+01  0.2388E+02
     -3.421  0.9291E+00  0.2400E+02
     -3.288  0.1020E-02  0.2400E+02
     -3.155  0.0000E+00  0.2400E+02
     -3.022  0.0000E+00  0.2400E+02
     -2.889  0.0000E+00  0.2400E+02
     -2.756  0.0000E+00  0.2400E+02
     -2.623  0.0000E+00  0.2400E+02
     -2.491  0.0000E+00  0.2400E+02
     -2.358  0.6016E-15  0.2400E+02
     -2.225  0.3808E-01  0.2401E+02
     -2.092  0.6308E+01  0.2484E+02
     -1.959  0.8065E+01  0.2591E+02
     -1.826  0.8241E+01  0.2701E+02
     -1.693  0.5882E+01  0.2779E+02
     -1.560  0.7164E+01  0.2874E+02
     -1.428  0.7145E+01  0.2969E+02
     -1.295  0.3528E+01  0.3016E+02
     -1.162  0.7628E+01  0.3118E+02
     -1.029  0.6319E+01  0.3201E+02
     -0.896  0.9995E+01  0.3334E+02
     -0.763  0.5205E+01  0.3403E+02
     -0.630  0.5562E+01  0.3477E+02
     -0.497  0.8361E+01  0.3588E+02
     -0.365  0.9646E+01  0.3717E+02
     -0.232  0.9261E+01  0.3840E+02
     -0.099  0.5395E+01  0.3911E+02
      0.034  0.9887E+01  0.4043E+02
      0.167  0.1042E+02  0.4181E+02
      0.300  0.7168E+01  0.4276E+02
      0.433  0.6127E+01  0.4358E+02
      0.566  0.4780E+01  0.4421E+02
      0.698  0.6302E+01  0.4505E+02
      0.831  0.8405E+01  0.4617E+02
      0.964  0.8209E+01  0.4726E+02
      1.097  0.5577E+01  0.4800E+02
      1.230  0.9130E-02  0.4800E+02
      1.363  0.0000E+00  0.4800E+02
      1.496  0.0000E+00  0.4800E+02
      1.629  0.0000E+00  0.4800E+02
      1.761  0.0000E+00  0.4800E+02
      1.894  0.0000E+00  0.4800E+02
      2.027  0.0000E+00  0.4800E+02
      2.160  0.0000E+00  0.4800E+02
      2.293  0.0000E+00  0.4800E+02
      2.426  0.0000E+00  0.4800E+02
      2.559  0.0000E+00  0.4800E+02
      2.692  0.0000E+00  0.4800E+02
      2.824  0.0000E+00  0.4800E+02
      2.957  0.0000E+00  0.4800E+02
      3.090  0.0000E+00  0.4800E+02
      3.223  0.0000E+00  0.4800E+02
      3.356  0.0000E+00  0.4800E+02
      3.489  0.0000E+00  0.4800E+02
      3.622  0.0000E+00  0.4800E+02
      3.755  0.0000E+00  0.4800E+02
      3.887  0.0000E+00  0.4800E+02
      4.020  0.0000E+00  0.4800E+02
      4.153  0.0000E+00  0.4800E+02
      4.286  0.0000E+00  0.4800E+02
      4.419  0.0000E+00  0.4800E+02
      4.552  0.0000E+00  0.4800E+02
      4.685  0.0000E+00  0.4800E+02
      4.818  0.0000E+00  0.4800E+02
      4.950  0.0000E+00  0.4800E+02
      5.083  0.0000E+00  0.4800E+02
      5.216  0.0000E+00  0.4800E+02
      5.349  0.0000E+00  0.4800E+02
      5.482  0.0000E+00  0.4800E+02
      5.615  0.0000E+00  0.4800E+02
      5.748  0.0000E+00  0.4800E+02
      5.881  0.0000E+00  0.4800E+02
      6.013  0.0000E+00  0.4800E+02
      6.146  0.0000E+00  0.4800E+02
      6.279  0.0000E+00  0.4800E+02
      6.412  0.0000E+00  0.4800E+02
      6.545  0.0000E+00  0.4800E+02
      6.678  0.0000E+00  0.4800E+02
      6.811  0.0000E+00  0.4800E+02
      6.944  0.4293E-03  0.4800E+02
      7.076  0.1501E+00  0.4802E+02
      7.209  0.3509E-04  0.4802E+02
      7.342  0.0000E+00  0.4802E+02
      7.475  0.3920E-08  0.4802E+02
      7.608  0.8141E+00  0.4813E+02
      7.741  0.3900E+00  0.4818E+02
      7.874  0.0000E+00  0.4818E+02
      8.007  0.2634E-03  0.4818E+02
      8.139  0.1775E+01  0.4842E+02
      8.272  0.3123E-01  0.4842E+02
      8.405  0.2605E-08  0.4842E+02
      8.538  0.6053E+00  0.4850E+02
      8.671  0.2978E+00  0.4854E+02
      8.804  0.2693E-02  0.4854E+02
      8.937  0.2776E+01  0.4891E+02
      9.070  0.2317E+00  0.4894E+02
      9.202  0.1709E+01  0.4917E+02
      9.335  0.1866E+01  0.4942E+02
      9.468  0.3916E-01  0.4942E+02
      9.601  0.1329E+01  0.4960E+02
      9.734  0.2184E+01  0.4989E+02
      9.867  0.1038E+01  0.5002E+02
     10.000  0.1769E+01  0.5026E+02
     10.133  0.1730E+01  0.5049E+02
     10.265  0.7578E+01  0.5150E+02
     10.398  0.6254E+01  0.5233E+02
     10.531  0.4926E+01  0.5298E+02
     10.664  0.7402E+01  0.5397E+02
     10.797  0.3193E+01  0.5439E+02
     10.930  0.5835E+01  0.5517E+02
     11.063  0.5968E+01  0.5596E+02
     11.196  0.4634E+01  0.5657E+02
     11.328  0.5525E+01  0.5731E+02
     11.461  0.4170E+01  0.5786E+02
     11.594  0.7444E+01  0.5885E+02
     11.727  0.1066E+02  0.6027E+02
     11.860  0.1657E+01  0.6049E+02
     11.993  0.3948E+01  0.6101E+02
     12.126  0.4150E+01  0.6156E+02
     12.259  0.4356E+01  0.6214E+02
     12.391  0.5426E+01  0.6286E+02
     12.524  0.1943E+01  0.6312E+02
     12.657  0.6067E+01  0.6393E+02
     12.790  0.2129E+01  0.6421E+02
     12.923  0.4702E+01  0.6484E+02
     13.056  0.6964E+01  0.6576E+02
     13.189  0.3938E+01  0.6628E+02
     13.322  0.5709E+01  0.6704E+02
     13.454  0.6994E+01  0.6797E+02
     13.587  0.5177E+01  0.6866E+02
     13.720  0.5208E+01  0.6935E+02
     13.853  0.5794E+01  0.7012E+02
     13.986  0.4038E+01  0.7066E+02
     14.119  0.3496E+01  0.7112E+02
     14.252  0.4809E+01  0.7176E+02
     14.385  0.3071E+01  0.7217E+02
     14.517  0.5260E+01  0.7287E+02
     14.650  0.2429E+01  0.7319E+02
     14.783  0.2543E+01  0.7353E+02
     14.916  0.1687E+01  0.7375E+02
     15.049  0.2553E+01  0.7409E+02
     15.182  0.2982E+01  0.7449E+02
     15.315  0.4621E+01  0.7510E+02
     15.448  0.4952E+01  0.7576E+02
     15.580  0.1734E+01  0.7599E+02
     15.713  0.2152E+01  0.7628E+02
     15.846  0.2622E+01  0.7663E+02
     15.979  0.3090E+01  0.7704E+02
     16.112  0.5679E+01  0.7779E+02
     16.245  0.5027E+01  0.7846E+02
     16.378  0.8085E+01  0.7953E+02
     16.510  0.5273E+01  0.8023E+02
     16.643  0.6448E+01  0.8109E+02
     16.776  0.8198E+01  0.8218E+02
     16.909  0.3538E+01  0.8265E+02
     17.042  0.2927E+01  0.8304E+02
     17.175  0.3611E+01  0.8352E+02
     17.308  0.9083E+00  0.8364E+02
     17.441  0.6702E+00  0.8373E+02
     17.573  0.1065E+01  0.8387E+02
     17.706  0.7112E-01  0.8388E+02
     17.839  0.1027E-01  0.8388E+02
     17.972  0.8928E+00  0.8400E+02
     18.105  0.3034E-04  0.8400E+02
     18.238  0.0000E+00  0.8400E+02
     18.371  0.0000E+00  0.8400E+02
     18.504  0.0000E+00  0.8400E+02
     18.636  0.0000E+00  0.8400E+02
     18.769  0.0000E+00  0.8400E+02
     18.902  0.0000E+00  0.8400E+02
     19.035  0.0000E+00  0.8400E+02
     19.168  0.0000E+00  0.8400E+02
     19.301  0.0000E+00  0.8400E+02
     19.434  0.0000E+00  0.8400E+02
     19.567  0.0000E+00  0.8400E+02
     19.699  0.0000E+00  0.8400E+02
