   9   9   0   0
  0.1263398E+02  0.4916558E-09  0.4916558E-09  0.5431625E-09  0.5000000E-15
   1.0000000000000000E-004
  CAR 
 unknown system                          
     13.07892097    -19.84756935  301      1.23910382      1.00000000
    -19.848  0.0000E+00  0.0000E+00
    -19.738  0.0000E+00  0.0000E+00
    -19.628  0.0000E+00  0.0000E+00
    -19.518  0.0000E+00  0.0000E+00
    -19.409  0.0000E+00  0.0000E+00
    -19.299  0.0000E+00  0.0000E+00
    -19.189  0.0000E+00  0.0000E+00
    -19.079  0.0000E+00  0.0000E+00
    -18.970  0.0000E+00  0.0000E+00
    -18.860  0.0000E+00  0.0000E+00
    -18.750  0.0000E+00  0.0000E+00
    -18.640  0.0000E+00  0.0000E+00
    -18.531  0.0000E+00  0.0000E+00
    -18.421  0.2102E-03  0.2307E-04
    -18.311  0.1035E+01  0.1137E+00
    -18.201  0.9846E+00  0.2217E+00
    -18.091  0.6324E+00  0.2911E+00
    -17.982  0.5165E+00  0.3478E+00
    -17.872  0.2348E+01  0.6055E+00
    -17.762  0.1006E+02  0.1710E+01
    -17.652  0.4654E+01  0.2221E+01
    -17.543  0.2903E+01  0.2540E+01
    -17.433  0.2373E+01  0.2800E+01
    -17.323  0.7193E+01  0.3590E+01
    -17.213  0.1556E+01  0.3760E+01
    -17.104  0.1783E+01  0.3956E+01
    -16.994  0.1480E+01  0.4119E+01
    -16.884  0.4170E+01  0.4576E+01
    -16.774  0.6948E+01  0.5339E+01
    -16.665  0.9189E+00  0.5440E+01
    -16.555  0.7223E+00  0.5519E+01
    -16.445  0.7806E+00  0.5605E+01
    -16.335  0.9513E+00  0.5709E+01
    -16.226  0.2209E+02  0.8134E+01
    -16.116  0.3481E+02  0.1195E+02
    -16.006  0.4175E+00  0.1200E+02
    -15.896  0.0000E+00  0.1200E+02
    -15.787  0.0000E+00  0.1200E+02
    -15.677  0.0000E+00  0.1200E+02
    -15.567  0.0000E+00  0.1200E+02
    -15.457  0.0000E+00  0.1200E+02
    -15.348  0.0000E+00  0.1200E+02
    -15.238  0.0000E+00  0.1200E+02
    -15.128  0.0000E+00  0.1200E+02
    -15.018  0.0000E+00  0.1200E+02
    -14.909  0.0000E+00  0.1200E+02
    -14.799  0.0000E+00  0.1200E+02
    -14.689  0.0000E+00  0.1200E+02
    -14.579  0.0000E+00  0.1200E+02
    -14.470  0.0000E+00  0.1200E+02
    -14.360  0.0000E+00  0.1200E+02
    -14.250  0.0000E+00  0.1200E+02
    -14.140  0.0000E+00  0.1200E+02
    -14.031  0.0000E+00  0.1200E+02
    -13.921  0.0000E+00  0.1200E+02
    -13.811  0.0000E+00  0.1200E+02
    -13.701  0.0000E+00  0.1200E+02
    -13.592  0.0000E+00  0.1200E+02
    -13.482  0.0000E+00  0.1200E+02
    -13.372  0.0000E+00  0.1200E+02
    -13.262  0.0000E+00  0.1200E+02
    -13.153  0.0000E+00  0.1200E+02
    -13.043  0.0000E+00  0.1200E+02
    -12.933  0.0000E+00  0.1200E+02
    -12.823  0.0000E+00  0.1200E+02
    -12.713  0.0000E+00  0.1200E+02
    -12.604  0.0000E+00  0.1200E+02
    -12.494  0.0000E+00  0.1200E+02
    -12.384  0.0000E+00  0.1200E+02
    -12.274  0.0000E+00  0.1200E+02
    -12.165  0.0000E+00  0.1200E+02
    -12.055  0.0000E+00  0.1200E+02
    -11.945  0.0000E+00  0.1200E+02
    -11.835  0.0000E+00  0.1200E+02
    -11.726  0.0000E+00  0.1200E+02
    -11.616  0.0000E+00  0.1200E+02
    -11.506  0.0000E+00  0.1200E+02
    -11.396  0.0000E+00  0.1200E+02
    -11.287  0.0000E+00  0.1200E+02
    -11.177  0.0000E+00  0.1200E+02
    -11.067  0.0000E+00  0.1200E+02
    -10.957  0.0000E+00  0.1200E+02
    -10.848  0.0000E+00  0.1200E+02
    -10.738  0.0000E+00  0.1200E+02
    -10.628  0.0000E+00  0.1200E+02
    -10.518  0.0000E+00  0.1200E+02
    -10.409  0.0000E+00  0.1200E+02
    -10.299  0.0000E+00  0.1200E+02
    -10.189  0.0000E+00  0.1200E+02
    -10.079  0.0000E+00  0.1200E+02
     -9.970  0.0000E+00  0.1200E+02
     -9.860  0.0000E+00  0.1200E+02
     -9.750  0.0000E+00  0.1200E+02
     -9.640  0.0000E+00  0.1200E+02
     -9.531  0.0000E+00  0.1200E+02
     -9.421  0.0000E+00  0.1200E+02
     -9.311  0.0000E+00  0.1200E+02
     -9.201  0.0000E+00  0.1200E+02
     -9.092  0.0000E+00  0.1200E+02
     -8.982  0.0000E+00  0.1200E+02
     -8.872  0.0000E+00  0.1200E+02
     -8.762  0.0000E+00  0.1200E+02
     -8.653  0.0000E+00  0.1200E+02
     -8.543  0.0000E+00  0.1200E+02
     -8.433  0.9104E-16  0.1200E+02
     -8.323  0.8653E-03  0.1200E+02
     -8.214  0.1292E+01  0.1214E+02
     -8.104  0.9949E+00  0.1225E+02
     -7.994  0.6898E+00  0.1233E+02
     -7.884  0.5228E+00  0.1238E+02
     -7.775  0.4951E+00  0.1244E+02
     -7.665  0.4195E+00  0.1248E+02
     -7.555  0.4303E+00  0.1253E+02
     -7.445  0.4215E+00  0.1258E+02
     -7.336  0.2150E+01  0.1281E+02
     -7.226  0.3947E+01  0.1325E+02
     -7.116  0.4480E+01  0.1374E+02
     -7.006  0.7851E+00  0.1383E+02
     -6.896  0.7212E+00  0.1390E+02
     -6.787  0.7014E+00  0.1398E+02
     -6.677  0.6941E+00  0.1406E+02
     -6.567  0.1029E+01  0.1417E+02
     -6.457  0.6772E+00  0.1424E+02
     -6.348  0.7150E+00  0.1432E+02
     -6.238  0.3001E+01  0.1465E+02
     -6.128  0.4035E+01  0.1510E+02
     -6.018  0.1176E+01  0.1522E+02
     -5.909  0.1127E+01  0.1535E+02
     -5.799  0.1157E+01  0.1548E+02
     -5.689  0.1267E+01  0.1561E+02
     -5.579  0.1988E+01  0.1583E+02
     -5.470  0.3977E+01  0.1627E+02
     -5.360  0.2683E+01  0.1656E+02
     -5.250  0.5102E+01  0.1712E+02
     -5.140  0.2630E+01  0.1741E+02
     -5.031  0.7723E+00  0.1750E+02
     -4.921  0.7658E+00  0.1758E+02
     -4.811  0.1069E+01  0.1770E+02
     -4.701  0.4976E+00  0.1775E+02
     -4.592  0.4267E+00  0.1780E+02
     -4.482  0.3945E+01  0.1823E+02
     -4.372  0.5121E+01  0.1879E+02
     -4.262  0.1127E+02  0.2003E+02
     -4.153  0.6894E+01  0.2079E+02
     -4.043  0.5634E+01  0.2141E+02
     -3.933  0.5801E+01  0.2204E+02
     -3.823  0.6172E+01  0.2272E+02
     -3.714  0.2868E+01  0.2304E+02
     -3.604  0.3550E+01  0.2342E+02
     -3.494  0.3692E+01  0.2383E+02
     -3.384  0.1548E+01  0.2400E+02
     -3.275  0.1280E-02  0.2400E+02
     -3.165  0.0000E+00  0.2400E+02
     -3.055  0.0000E+00  0.2400E+02
     -2.945  0.0000E+00  0.2400E+02
     -2.836  0.0000E+00  0.2400E+02
     -2.726  0.0000E+00  0.2400E+02
     -2.616  0.0000E+00  0.2400E+02
     -2.506  0.0000E+00  0.2400E+02
     -2.397  0.0000E+00  0.2400E+02
     -2.287  0.3424E-04  0.2400E+02
     -2.177  0.1700E+01  0.2419E+02
     -2.067  0.7866E+01  0.2505E+02
     -1.958  0.6403E+01  0.2575E+02
     -1.848  0.8030E+01  0.2663E+02
     -1.738  0.1025E+02  0.2776E+02
     -1.628  0.6365E+01  0.2846E+02
     -1.518  0.7487E+01  0.2928E+02
     -1.409  0.3578E+01  0.2967E+02
     -1.299  0.4290E+01  0.3014E+02
     -1.189  0.3737E+01  0.3055E+02
     -1.079  0.4175E+01  0.3101E+02
     -0.970  0.8764E+01  0.3197E+02
     -0.860  0.1501E+02  0.3362E+02
     -0.750  0.8633E+01  0.3457E+02
     -0.640  0.6358E+01  0.3527E+02
     -0.531  0.6711E+01  0.3600E+02
     -0.421  0.1006E+02  0.3711E+02
     -0.311  0.4764E+01  0.3763E+02
     -0.201  0.6324E+01  0.3832E+02
     -0.092  0.9352E+01  0.3935E+02
      0.018  0.9342E+01  0.4037E+02
      0.128  0.1109E+02  0.4159E+02
      0.238  0.4102E+01  0.4204E+02
      0.347  0.4354E+01  0.4252E+02
      0.457  0.7698E+01  0.4337E+02
      0.567  0.8129E+01  0.4426E+02
      0.677  0.8311E+01  0.4517E+02
      0.786  0.6069E+01  0.4584E+02
      0.896  0.8375E+01  0.4676E+02
      1.006  0.8637E+01  0.4770E+02
      1.116  0.2701E+01  0.4800E+02
      1.225  0.2370E-02  0.4800E+02
      1.335  0.0000E+00  0.4800E+02
      1.445  0.0000E+00  0.4800E+02
      1.555  0.0000E+00  0.4800E+02
      1.664  0.0000E+00  0.4800E+02
      1.774  0.0000E+00  0.4800E+02
      1.884  0.0000E+00  0.4800E+02
      1.994  0.0000E+00  0.4800E+02
      2.103  0.0000E+00  0.4800E+02
      2.213  0.0000E+00  0.4800E+02
      2.323  0.0000E+00  0.4800E+02
      2.433  0.0000E+00  0.4800E+02
      2.542  0.0000E+00  0.4800E+02
      2.652  0.0000E+00  0.4800E+02
      2.762  0.0000E+00  0.4800E+02
      2.872  0.0000E+00  0.4800E+02
      2.981  0.0000E+00  0.4800E+02
      3.091  0.0000E+00  0.4800E+02
      3.201  0.0000E+00  0.4800E+02
      3.311  0.0000E+00  0.4800E+02
      3.420  0.0000E+00  0.4800E+02
      3.530  0.0000E+00  0.4800E+02
      3.640  0.0000E+00  0.4800E+02
      3.750  0.0000E+00  0.4800E+02
      3.860  0.0000E+00  0.4800E+02
      3.969  0.0000E+00  0.4800E+02
      4.079  0.0000E+00  0.4800E+02
      4.189  0.0000E+00  0.4800E+02
      4.299  0.0000E+00  0.4800E+02
      4.408  0.0000E+00  0.4800E+02
      4.518  0.0000E+00  0.4800E+02
      4.628  0.0000E+00  0.4800E+02
      4.738  0.0000E+00  0.4800E+02
      4.847  0.0000E+00  0.4800E+02
      4.957  0.0000E+00  0.4800E+02
      5.067  0.0000E+00  0.4800E+02
      5.177  0.0000E+00  0.4800E+02
      5.286  0.0000E+00  0.4800E+02
      5.396  0.0000E+00  0.4800E+02
      5.506  0.0000E+00  0.4800E+02
      5.616  0.0000E+00  0.4800E+02
      5.725  0.0000E+00  0.4800E+02
      5.835  0.0000E+00  0.4800E+02
      5.945  0.0000E+00  0.4800E+02
      6.055  0.0000E+00  0.4800E+02
      6.164  0.0000E+00  0.4800E+02
      6.274  0.0000E+00  0.4800E+02
      6.384  0.0000E+00  0.4800E+02
      6.494  0.0000E+00  0.4800E+02
      6.603  0.0000E+00  0.4800E+02
      6.713  0.0000E+00  0.4800E+02
      6.823  0.0000E+00  0.4800E+02
      6.933  0.1228E-03  0.4800E+02
      7.042  0.5011E+00  0.4806E+02
      7.152  0.4237E+00  0.4810E+02
      7.262  0.2923E+00  0.4813E+02
      7.372  0.2303E+00  0.4816E+02
      7.481  0.1902E+00  0.4818E+02
      7.591  0.1828E+00  0.4820E+02
      7.701  0.1799E+00  0.4822E+02
      7.811  0.1690E+00  0.4824E+02
      7.920  0.1291E+00  0.4825E+02
      8.030  0.9844E-01  0.4826E+02
      8.140  0.1552E+00  0.4828E+02
      8.250  0.1805E+00  0.4830E+02
      8.359  0.1469E+00  0.4832E+02
      8.469  0.6286E-01  0.4832E+02
      8.579  0.1557E+00  0.4834E+02
      8.689  0.1789E+00  0.4836E+02
      8.798  0.9907E-01  0.4837E+02
      8.908  0.1072E+00  0.4838E+02
      9.018  0.1636E+01  0.4856E+02
      9.128  0.8788E+00  0.4866E+02
      9.237  0.6635E+00  0.4873E+02
      9.347  0.1598E+01  0.4891E+02
      9.457  0.1067E+01  0.4902E+02
      9.567  0.9401E+00  0.4913E+02
      9.677  0.1610E+01  0.4930E+02
      9.786  0.2334E+01  0.4956E+02
      9.896  0.4144E+01  0.5001E+02
     10.006  0.4999E+01  0.5056E+02
     10.116  0.4298E+01  0.5103E+02
     10.225  0.5301E+01  0.5162E+02
     10.335  0.4547E+01  0.5212E+02
     10.445  0.4731E+01  0.5263E+02
     10.555  0.3337E+01  0.5300E+02
     10.664  0.6237E+01  0.5369E+02
     10.774  0.6714E+01  0.5442E+02
     10.884  0.5277E+01  0.5500E+02
     10.994  0.4222E+01  0.5547E+02
     11.103  0.4748E+01  0.5599E+02
     11.213  0.3385E+01  0.5636E+02
     11.323  0.4068E+01  0.5680E+02
     11.433  0.5181E+01  0.5737E+02
     11.542  0.3712E+01  0.5778E+02
     11.652  0.2002E+01  0.5800E+02
     11.762  0.3097E-03  0.5800E+02
     11.872  0.0000E+00  0.5800E+02
     11.981  0.0000E+00  0.5800E+02
     12.091  0.0000E+00  0.5800E+02
     12.201  0.0000E+00  0.5800E+02
     12.311  0.0000E+00  0.5800E+02
     12.420  0.0000E+00  0.5800E+02
     12.530  0.0000E+00  0.5800E+02
     12.640  0.0000E+00  0.5800E+02
     12.750  0.0000E+00  0.5800E+02
     12.859  0.0000E+00  0.5800E+02
     12.969  0.0000E+00  0.5800E+02
     13.079  0.0000E+00  0.5800E+02
