 vasp.6.4.3 19Mar24 (build Jul  1 2025 23:09:51) complex                         
 executed on             LinuxGNU date 2025.12.09  13:39:02
 running    1 mpi-ranks, with   12 threads/rank, on    1 nodes
 distrk:  each k-point on    1 cores,    1 groups
 distr:  one band on NCORE=   1 cores,    1 groups


--------------------------------------------------------------------------------------------------------


 INCAR:
   GGA = PE
   PREC = Accurate
   ENCUT = 520
   KSPACING = 0.3
   ISMEAR = 0
   SIGMA = 0.03
   EDIFF = 1e-6
   NELM = 120
   NELMIN = 8
   ICHARG = 11

 POTCAR:    PAW_PBE Si 05Jan2001                  
 POTCAR:    PAW_PBE O 08Apr2002                   
 POTCAR:    PAW_PBE Si 05Jan2001                  
   SHA256 =  79d9987ad8750f624c4d6acb2a16d13abf6a777132adc04dc6c8399be72b42bb Si/POTCAR             
   COPYR  = (c) Copyright 05Jan2001 Georg Kresse                                                    
   COPYR  = This file is part of the software VASP. Any use, copying, and all other rights are regul
   COPYR  = If you do not have a valid VASP license, you may not use, copy or distribute this file. 
   VRHFIN =Si: s2p2                                                                                 
   LEXCH  = PE                                                                                      
   EATOM  =   103.0669 eV,    7.5752 Ry                                                             
                                                                                                    
   TITEL  = PAW_PBE Si 05Jan2001                                                                    
   LULTRA =        F    use ultrasoft PP ?                                                          
   IUNSCR =        1    unscreen: 0-lin 1-nonlin 2-no                                               
   RPACOR =    1.500    partial core radius                                                         
   POMASS =   28.085; ZVAL   =    4.000    mass and valenz                                          
   RCORE  =    1.900    outmost cutoff radius                                                       
   RWIGS  =    2.480; RWIGS  =    1.312    wigner-seitz radius (au A)                               
   ENMAX  =  245.345; ENMIN  =  184.009 eV                                                          
   ICORE  =        2    local potential                                                             
   LCOR   =        T    correct aug charges                                                         
   LPAW   =        T    paw PP                                                                      
   EAUG   =  322.069                                                                                
   DEXC   =    0.000                                                                                
   RMAX   =    1.950    core radius for proj-oper                                                   
   RAUG   =    1.300    factor for augmentation sphere                                              
   RDEP   =    1.993    radius for radial grids                                                     
   RDEPT  =    1.837    core radius for aug-charge                                                  
                                                                                                    
   Atomic configuration                                                                             
    6 entries                                                                                       
     n  l   j            E        occ.                                                              
     1  0  0.50     -1785.8828   2.0000                                                             
     2  0  0.50      -139.4969   2.0000                                                             
     2  1  1.50       -95.5546   6.0000                                                             
     3  0  0.50       -10.8127   2.0000                                                             
     3  1  0.50        -4.0811   2.0000                                                             
     3  2  1.50        -4.0817   0.0000                                                             
   Description                                                                                      
     l       E           TYP  RCUT    TYP  RCUT                                                     
     0    -10.8127223     23  1.900                                                                 
     0     -7.6451159     23  1.900                                                                 
     1     -4.0811372     23  1.900                                                                 
     1      2.4879257     23  1.900                                                                 
     2     -4.0817478      7  1.900                                                                 
  local pseudopotential read in
  partial core-charges read in
  partial kinetic energy density read in
  atomic valenz-charges read in
  non local Contribution for L=           0  read in
    real space projection operators read in
  non local Contribution for L=           0  read in
    real space projection operators read in
  non local Contribution for L=           1  read in
    real space projection operators read in
  non local Contribution for L=           1  read in
    real space projection operators read in
    PAW grid and wavefunctions read in

   number of l-projection  operators is LMAX  =           4
   number of lm-projection operators is LMMAX =           8

 POTCAR:    PAW_PBE O 08Apr2002                   
   SHA256 =  818f92134a0a090dccd8ba1447fa70422a3b330e708bb4f08108d8ae51209ddf O/POTCAR              
   COPYR  = (c) Copyright 08Apr2002 Georg Kresse                                                    
   COPYR  = This file is part of the software VASP. Any use, copying, and all other rights are regul
   COPYR  = If you do not have a valid VASP license, you may not use, copy or distribute this file. 
   VRHFIN =O: s2p4                                                                                  
   LEXCH  = PE                                                                                      
   EATOM  =   432.3788 eV,   31.7789 Ry                                                             
                                                                                                    
   TITEL  = PAW_PBE O 08Apr2002                                                                     
   LULTRA =        F    use ultrasoft PP ?                                                          
   IUNSCR =        1    unscreen: 0-lin 1-nonlin 2-no                                               
   RPACOR =    1.200    partial core radius                                                         
   POMASS =   16.000; ZVAL   =    6.000    mass and valenz                                          
   RCORE  =    1.520    outmost cutoff radius                                                       
   RWIGS  =    1.550; RWIGS  =    0.820    wigner-seitz radius (au A)                               
   ENMAX  =  400.000; ENMIN  =  300.000 eV                                                          
   ICORE  =        2    local potential                                                             
   LCOR   =        T    correct aug charges                                                         
   LPAW   =        T    paw PP                                                                      
   EAUG   =  605.392                                                                                
   DEXC   =    0.000                                                                                
   RMAX   =    1.553    core radius for proj-oper                                                   
   RAUG   =    1.300    factor for augmentation sphere                                              
   RDEP   =    1.550    radius for radial grids                                                     
   RDEPT  =    1.329    core radius for aug-charge                                                  
                                                                                                    
   Atomic configuration                                                                             
    4 entries                                                                                       
     n  l   j            E        occ.                                                              
     1  0  0.50      -514.6923   2.0000                                                             
     2  0  0.50       -23.9615   2.0000                                                             
     2  1  0.50        -9.0305   4.0000                                                             
     3  2  1.50        -9.5241   0.0000                                                             
   Description                                                                                      
     l       E           TYP  RCUT    TYP  RCUT                                                     
     0    -23.9615318     23  1.200                                                                 
     0     -9.5240782     23  1.200                                                                 
     1     -9.0304911     23  1.520                                                                 
     1      8.1634956     23  1.520                                                                 
     2     -9.5240782      7  1.500                                                                 
  local pseudopotential read in
  partial core-charges read in
  partial kinetic energy density read in
  kinetic energy density of atom read in
  atomic valenz-charges read in
  non local Contribution for L=           0  read in
    real space projection operators read in
  non local Contribution for L=           0  read in
    real space projection operators read in
  non local Contribution for L=           1  read in
    real space projection operators read in
  non local Contribution for L=           1  read in
    real space projection operators read in
    PAW grid and wavefunctions read in

   number of l-projection  operators is LMAX  =           4
   number of lm-projection operators is LMMAX =           8

  PAW_PBE Si 05Jan2001                  :
 energy of atom  1       EATOM= -103.0669
 kinetic energy error for atom=    0.0005 (will be added to EATOM!!)
  PAW_PBE O 08Apr2002                   :
 energy of atom  2       EATOM= -432.3788
 kinetic energy error for atom=    0.0208 (will be added to EATOM!!)


 POSCAR: Si3 O6
  positions in direct lattice
  No initial velocities read in


 exchange-correlation table for PE
   RHO(1)=    0.500       N(1)  =     2000
   RHO(2)=  100.500       N(2)  =     4000



--------------------------------------------------------------------------------------------------------


 ion  position               nearest neighbor table
   1  0.000  0.469  0.333-   6 1.61   9 1.61   4 1.62   8 1.62   3 3.06   3 3.06   2 3.06   2 3.06

   2  0.531  0.531  0.000-   5 1.61   8 1.61   7 1.62   6 1.62   1 3.06   3 3.06   1 3.06   3 3.06

   3  0.469  0.000  0.667-   7 1.61   4 1.61   5 1.62   9 1.62   1 3.06   1 3.06   2 3.06   2 3.06

   4  0.145  0.731  0.548-   3 1.61   1 1.62
   5  0.587  0.855  0.881-   2 1.61   3 1.62
   6  0.269  0.413  0.214-   1 1.61   2 1.62
   7  0.413  0.269  0.786-   3 1.61   2 1.62
   8  0.855  0.587  0.119-   2 1.61   1 1.62
   9  0.731  0.145  0.452-   1 1.61   3 1.62

  LATTYP: Found a hexagonal cell.
 ALAT       =     4.9165578074
 C/A-ratio  =     1.1047617994
  
  Lattice vectors:
  
 A1 = (   2.4582789037,  -4.2578639604,   0.0000000000)
 A2 = (   2.4582789037,   4.2578639604,   0.0000000000)
 A3 = (   0.0000000000,   0.0000000000,   5.4316252501)


Analysis of symmetry for initial positions (statically):
=====================================================================
 Subroutine PRICEL returns:
 Original cell was already a primitive cell.
 

 Routine SETGRP: Setting up the symmetry group for a 
 hexagonal supercell.


 Subroutine GETGRP returns: Found  6 space group operations
 (whereof  2 operations were pure point group operations)
 out of a pool of 24 trial point group operations.


The static configuration has the point symmetry C_2 .
 The point group associated with its full space group is D_3 .


Analysis of symmetry for dynamics (positions and initial velocities):
=====================================================================
 Subroutine PRICEL returns:
 Original cell was already a primitive cell.
 

 Routine SETGRP: Setting up the symmetry group for a 
 hexagonal supercell.


 Subroutine GETGRP returns: Found  6 space group operations
 (whereof  2 operations were pure point group operations)
 out of a pool of 24 trial point group operations.


The dynamic configuration has the point symmetry C_2 .
 The point group associated with its full space group is D_3 .


 Subroutine INISYM returns: Found  6 space group operations
 (whereof  2 operations are pure point group operations),
 and found     1 'primitive' translations


----------------------------------------------------------------------------------------

                                     Primitive cell                                     

  volume of cell :     113.7058

  direct lattice vectors                    reciprocal lattice vectors
     2.458278904 -4.257863960  0.000000000     0.203394334 -0.117429773  0.000000000
     2.458278904  4.257863960  0.000000000     0.203394334  0.117429773 -0.000000000
     0.000000000  0.000000000  5.431625250    -0.000000000  0.000000000  0.184106958

  length of vectors
     4.916557807  4.916557807  5.431625250     0.234859547  0.234859547  0.184106958

  position of ions in fractional coordinates (direct lattice)
     1.000000000  0.468798230  0.333333333
     0.531201770  0.531201770  0.000000000
     0.468798230  1.000000000  0.666666667
     0.144538360  0.731439790  0.547819600
     0.586901430  0.855461640  0.881152933
     0.268560210  0.413098570  0.214486267
     0.413098570  0.268560210  0.785513733
     0.855461640  0.586901430  0.118847067
     0.731439790  0.144538360  0.452180400

  ion indices of the primitive-cell ions
   primitive index   ion index
                 1           1
                 2           2
                 3           3
                 4           4
                 5           5
                 6           6
                 7           7
                 8           8
                 9           9

----------------------------------------------------------------------------------------



 KPOINTS: K-Path Generated by vasputils.          

Interpolating k-points between supplied coordinates.

 Line segments in fractional coordinates (reciprocal lattice):
    0.000000  0.000000  0.000000  ...  0.000000  0.000000  0.500000
    0.000000  0.000000  0.500000  ...  0.333333  0.333333  0.500000
    0.333333  0.333333  0.500000  ...  0.333333  0.333333  0.000000
    0.333333  0.333333  0.000000  ...  0.500000  0.000000  0.500000
    0.500000  0.000000  0.500000  ...  0.500000  0.000000  0.000000

 Generated    20 points on each line segment, for a total of    100 k-points:

 Following reciprocal coordinates:
            Coordinates               Weight
  0.000000  0.000000  0.000000      0.010000
  0.000000  0.000000  0.026316      0.010000
  0.000000  0.000000  0.052632      0.010000
  0.000000  0.000000  0.078947      0.010000
  0.000000  0.000000  0.105263      0.010000
  0.000000  0.000000  0.131579      0.010000
  0.000000  0.000000  0.157895      0.010000
  0.000000  0.000000  0.184211      0.010000
  0.000000  0.000000  0.210526      0.010000
  0.000000  0.000000  0.236842      0.010000
  0.000000  0.000000  0.263158      0.010000
  0.000000  0.000000  0.289474      0.010000
  0.000000  0.000000  0.315789      0.010000
  0.000000  0.000000  0.342105      0.010000
  0.000000  0.000000  0.368421      0.010000
  0.000000  0.000000  0.394737      0.010000
  0.000000  0.000000  0.421053      0.010000
  0.000000  0.000000  0.447368      0.010000
  0.000000  0.000000  0.473684      0.010000
  0.000000  0.000000  0.500000      0.010000
  0.000000  0.000000  0.500000      0.010000
  0.017544  0.017544  0.500000      0.010000
  0.035088  0.035088  0.500000      0.010000
  0.052632  0.052632  0.500000      0.010000
  0.070175  0.070175  0.500000      0.010000
  0.087719  0.087719  0.500000      0.010000
  0.105263  0.105263  0.500000      0.010000
  0.122807  0.122807  0.500000      0.010000
  0.140351  0.140351  0.500000      0.010000
  0.157895  0.157895  0.500000      0.010000
  0.175439  0.175439  0.500000      0.010000
  0.192982  0.192982  0.500000      0.010000
  0.210526  0.210526  0.500000      0.010000
  0.228070  0.228070  0.500000      0.010000
  0.245614  0.245614  0.500000      0.010000
  0.263158  0.263158  0.500000      0.010000
  0.280702  0.280702  0.500000      0.010000
  0.298246  0.298246  0.500000      0.010000
  0.315789  0.315789  0.500000      0.010000
  0.333333  0.333333  0.500000      0.010000
  0.333333  0.333333  0.500000      0.010000
  0.333333  0.333333  0.473684      0.010000
  0.333333  0.333333  0.447368      0.010000
  0.333333  0.333333  0.421053      0.010000
  0.333333  0.333333  0.394737      0.010000
  0.333333  0.333333  0.368421      0.010000
  0.333333  0.333333  0.342105      0.010000
  0.333333  0.333333  0.315789      0.010000
  0.333333  0.333333  0.289474      0.010000
  0.333333  0.333333  0.263158      0.010000
  0.333333  0.333333  0.236842      0.010000
  0.333333  0.333333  0.210526      0.010000
  0.333333  0.333333  0.184211      0.010000
  0.333333  0.333333  0.157895      0.010000
  0.333333  0.333333  0.131579      0.010000
  0.333333  0.333333  0.105263      0.010000
  0.333333  0.333333  0.078947      0.010000
  0.333333  0.333333  0.052632      0.010000
  0.333333  0.333333  0.026316      0.010000
  0.333333  0.333333  0.000000      0.010000
  0.333333  0.333333  0.000000      0.010000
  0.342105  0.315789  0.026316      0.010000
  0.350877  0.298246  0.052632      0.010000
  0.359649  0.280702  0.078947      0.010000
  0.368421  0.263158  0.105263      0.010000
  0.377193  0.245614  0.131579      0.010000
  0.385965  0.228070  0.157895      0.010000
  0.394737  0.210526  0.184211      0.010000
  0.403509  0.192982  0.210526      0.010000
  0.412281  0.175439  0.236842      0.010000
  0.421053  0.157895  0.263158      0.010000
  0.429825  0.140351  0.289474      0.010000
  0.438596  0.122807  0.315789      0.010000
  0.447368  0.105263  0.342105      0.010000
  0.456140  0.087719  0.368421      0.010000
  0.464912  0.070175  0.394737      0.010000
  0.473684  0.052632  0.421053      0.010000
  0.482456  0.035088  0.447368      0.010000
  0.491228  0.017544  0.473684      0.010000
  0.500000 -0.000000  0.500000      0.010000
  0.500000  0.000000  0.500000      0.010000
  0.500000  0.000000  0.473684      0.010000
  0.500000  0.000000  0.447368      0.010000
  0.500000  0.000000  0.421053      0.010000
  0.500000  0.000000  0.394737      0.010000
  0.500000  0.000000  0.368421      0.010000
  0.500000  0.000000  0.342105      0.010000
  0.500000  0.000000  0.315789      0.010000
  0.500000  0.000000  0.289474      0.010000
  0.500000  0.000000  0.263158      0.010000
  0.500000  0.000000  0.236842      0.010000
  0.500000  0.000000  0.210526      0.010000
  0.500000  0.000000  0.184211      0.010000
  0.500000  0.000000  0.157895      0.010000
  0.500000  0.000000  0.131579      0.010000
  0.500000  0.000000  0.105263      0.010000
  0.500000  0.000000  0.078947      0.010000
  0.500000  0.000000  0.052632      0.010000
  0.500000  0.000000  0.026316      0.010000
  0.500000  0.000000  0.000000      0.010000

 Following cartesian coordinates:
            Coordinates               Weight
  0.000000  0.000000  0.000000      0.010000
  0.000000  0.000000  0.004845      0.010000
  0.000000  0.000000  0.009690      0.010000
  0.000000  0.000000  0.014535      0.010000
  0.000000  0.000000  0.019380      0.010000
  0.000000  0.000000  0.024225      0.010000
  0.000000  0.000000  0.029070      0.010000
  0.000000  0.000000  0.033914      0.010000
  0.000000  0.000000  0.038759      0.010000
  0.000000  0.000000  0.043604      0.010000
  0.000000  0.000000  0.048449      0.010000
  0.000000  0.000000  0.053294      0.010000
  0.000000  0.000000  0.058139      0.010000
  0.000000  0.000000  0.062984      0.010000
  0.000000  0.000000  0.067829      0.010000
  0.000000  0.000000  0.072674      0.010000
  0.000000  0.000000  0.077519      0.010000
  0.000000  0.000000  0.082364      0.010000
  0.000000  0.000000  0.087209      0.010000
  0.000000  0.000000  0.092053      0.010000
  0.000000  0.000000  0.092053      0.010000
  0.007137  0.000000  0.092053      0.010000
  0.014273  0.000000  0.092053      0.010000
  0.021410 -0.000000  0.092053      0.010000
  0.028547  0.000000  0.092053      0.010000
  0.035683  0.000000  0.092053      0.010000
  0.042820 -0.000000  0.092053      0.010000
  0.049957 -0.000000  0.092053      0.010000
  0.057093  0.000000  0.092053      0.010000
  0.064230 -0.000000  0.092053      0.010000
  0.071366  0.000000  0.092053      0.010000
  0.078503 -0.000000  0.092053      0.010000
  0.085640 -0.000000  0.092053      0.010000
  0.092776  0.000000  0.092053      0.010000
  0.099913 -0.000000  0.092053      0.010000
  0.107050  0.000000  0.092053      0.010000
  0.114186  0.000000  0.092053      0.010000
  0.121323 -0.000000  0.092053      0.010000
  0.128460 -0.000000  0.092053      0.010000
  0.135596 -0.000000  0.092053      0.010000
  0.135596 -0.000000  0.092053      0.010000
  0.135596 -0.000000  0.087209      0.010000
  0.135596 -0.000000  0.082364      0.010000
  0.135596 -0.000000  0.077519      0.010000
  0.135596 -0.000000  0.072674      0.010000
  0.135596 -0.000000  0.067829      0.010000
  0.135596 -0.000000  0.062984      0.010000
  0.135596 -0.000000  0.058139      0.010000
  0.135596 -0.000000  0.053294      0.010000
  0.135596 -0.000000  0.048449      0.010000
  0.135596 -0.000000  0.043604      0.010000
  0.135596 -0.000000  0.038759      0.010000
  0.135596 -0.000000  0.033914      0.010000
  0.135596 -0.000000  0.029070      0.010000
  0.135596 -0.000000  0.024225      0.010000
  0.135596 -0.000000  0.019380      0.010000
  0.135596 -0.000000  0.014535      0.010000
  0.135596 -0.000000  0.009690      0.010000
  0.135596 -0.000000  0.004845      0.010000
  0.135596 -0.000000  0.000000      0.010000
  0.135596 -0.000000  0.000000      0.010000
  0.133812 -0.003090  0.004845      0.010000
  0.132028 -0.006181  0.009690      0.010000
  0.130244 -0.009271  0.014535      0.010000
  0.128460 -0.012361  0.019380      0.010000
  0.126675 -0.015451  0.024225      0.010000
  0.124891 -0.018542  0.029070      0.010000
  0.123107 -0.021632  0.033914      0.010000
  0.121323 -0.024722  0.038759      0.010000
  0.119539 -0.027812  0.043604      0.010000
  0.117755 -0.030903  0.048449      0.010000
  0.115970 -0.033993  0.053294      0.010000
  0.114186 -0.037083  0.058139      0.010000
  0.112402 -0.040173  0.062984      0.010000
  0.110618 -0.043264  0.067829      0.010000
  0.108834 -0.046354  0.072674      0.010000
  0.107050 -0.049444  0.077519      0.010000
  0.105265 -0.052534  0.082364      0.010000
  0.103481 -0.055625  0.087209      0.010000
  0.101697 -0.058715  0.092053      0.010000
  0.101697 -0.058715  0.092053      0.010000
  0.101697 -0.058715  0.087209      0.010000
  0.101697 -0.058715  0.082364      0.010000
  0.101697 -0.058715  0.077519      0.010000
  0.101697 -0.058715  0.072674      0.010000
  0.101697 -0.058715  0.067829      0.010000
  0.101697 -0.058715  0.062984      0.010000
  0.101697 -0.058715  0.058139      0.010000
  0.101697 -0.058715  0.053294      0.010000
  0.101697 -0.058715  0.048449      0.010000
  0.101697 -0.058715  0.043604      0.010000
  0.101697 -0.058715  0.038759      0.010000
  0.101697 -0.058715  0.033914      0.010000
  0.101697 -0.058715  0.029070      0.010000
  0.101697 -0.058715  0.024225      0.010000
  0.101697 -0.058715  0.019380      0.010000
  0.101697 -0.058715  0.014535      0.010000
  0.101697 -0.058715  0.009690      0.010000
  0.101697 -0.058715  0.004845      0.010000
  0.101697 -0.058715  0.000000      0.010000



--------------------------------------------------------------------------------------------------------




 Dimension of arrays:
   k-points           NKPTS =    100   k-points in BZ     NKDIM =    100   number of bands    NBANDS=     29
   number of dos      NEDOS =    301   number of ions     NIONS =      9
   non local maximal  LDIM  =      4   non local SUM 2l+1 LMDIM =      8
   total plane-waves  NPLWV =  64000
   max r-space proj   IRMAX =      1   max aug-charges    IRDMAX=  19016
   dimension x,y,z NGX =    40 NGY =   40 NGZ =   40
   dimension x,y,z NGXF=    80 NGYF=   80 NGZF=   80
   support grid    NGXF=    80 NGYF=   80 NGZF=   80
   ions per type =               3   6
   NGX,Y,Z   is equivalent  to a cutoff of  13.53, 13.53, 12.24 a.u.
   NGXF,Y,Z  is equivalent  to a cutoff of  27.05, 27.05, 24.49 a.u.

 SYSTEM =  unknown system                          
 POSCAR =  Si3 O6                                  

 Startparameter for this run:
   NWRITE =      2    write-flag & timer
   PREC   = accura    normal or accurate (medium, high low for compatibility)
   ISTART =      1    job   : 0-new  1-cont  2-samecut
   ICHARG =     11    charge: 1-file 2-atom 10-const
   ISPIN  =      1    spin polarized calculation?
   LNONCOLLINEAR =      F non collinear calculations
   LSORBIT =      F    spin-orbit coupling
   INIWAV =      1    electr: 0-lowe 1-rand  2-diag
   LASPH  =      F    aspherical Exc in radial PAW
 Electronic Relaxation 1
   ENCUT  =  520.0 eV  38.22 Ry    6.18 a.u.   9.14  9.14 10.10*2*pi/ulx,y,z
   ENINI  =  520.0     initial cutoff
   ENAUG  =  605.4 eV  augmentation charge cutoff
   NELM   =    120;   NELMIN=  8; NELMDL=  0     # of ELM steps 
   EDIFF  = 0.1E-05   stopping-criterion for ELM
   LREAL  =      F    real-space projection
   NLSPLINE    = F    spline interpolate recip. space projectors
   LCOMPAT=      F    compatible to vasp.4.4
   GGA_COMPAT  = T    GGA compatible to vasp.4.4-vasp.4.6
   LMAXPAW     = -100 max onsite density
   LMAXMIX     =    2 max onsite mixed and CHGCAR
   VOSKOWN=      0    Vosko Wilk Nusair interpolation
   ROPT   =    0.00000   0.00000
 Ionic relaxation
   EDIFFG = 0.1E-04   stopping-criterion for IOM
   NSW    =      0    number of steps for IOM
   NBLOCK =      1;   KBLOCK =      1    inner block; outer block 
   IBRION =     -1    ionic relax: 0-MD 1-quasi-New 2-CG
   NFREE  =      0    steps in history (QN), initial steepest desc. (CG)
   ISIF   =      2    stress and relaxation
   IWAVPR =     10    prediction:  0-non 1-charg 2-wave 3-comb
   ISYM   =      2    0-nonsym 1-usesym 2-fastsym
   LCORR  =      T    Harris-Foulkes like correction to forces

   POTIM  = 0.5000    time-step for ionic-motion
   TEIN   =    0.0    initial temperature
   TEBEG  =    0.0;   TEEND  =   0.0 temperature during run
   SMASS  =  -3.00    Nose mass-parameter (am)
   estimated Nose-frequenzy (Omega)   =  0.10E-29 period in steps = 0.13E+47 mass=  -0.552E-27a.u.
   SCALEE = 1.0000    scale energy and forces
   NPACO  =    256;   APACO  = 10.0  distance and # of slots for P.C.
   PSTRESS=    0.0 pullay stress

  Mass of Ions in am
   POMASS =  28.09 16.00
  Ionic Valenz
   ZVAL   =   4.00  6.00
  Atomic Wigner-Seitz radii
   RWIGS  =  -1.00 -1.00
  virtual crystal weights 
   VCA    =   1.00  1.00
   NELECT =      48.0000    total number of electrons
   NUPDOWN=      -1.0000    fix difference up-down

 DOS related values:
   EMIN   =  10.00;   EMAX   =-10.00  energy-range for DOS
   EFERMI =   0.00;   METHOD = LEGACY      
   ISMEAR =     0;   SIGMA  =   0.03  broadening in eV -4-tet -1-fermi 0-gaus

 Electronic relaxation 2 (details)
   IALGO  =     38    algorithm
   LDIAG  =      T    sub-space diagonalisation (order eigenvalues)
   LSUBROT=      F    optimize rotation matrix (better conditioning)
   TURBO    =      0    0=normal 1=particle mesh
   IRESTART =      0    0=no restart 2=restart with 2 vectors
   NREBOOT  =      0    no. of reboots
   NMIN     =      0    reboot dimension
   EREF     =   0.00    reference energy to select bands
   IMIX   =      4    mixing-type and parameters
     AMIX     =   0.40;   BMIX     =  1.00
     AMIX_MAG =   1.60;   BMIX_MAG =  1.00
     AMIN     =   0.10
     WC   =   100.;   INIMIX=   1;  MIXPRE=   1;  MAXMIX= -45

 Intra band minimization:
   WEIMIN = 0.0000     energy-eigenvalue tresh-hold
   EBREAK =  0.86E-08  absolut break condition
   DEPER  =   0.30     relativ break condition  

   TIME   =   0.40     timestep for ELM

  volume/ion in A,a.u.               =      12.63        85.26
  Fermi-wavevector in a.u.,A,eV,Ry     =   1.228083  2.320740 20.520137  1.508187
  Thomas-Fermi vector in A             =   2.363022

 Write flags
   LWAVE        =      T    write WAVECAR
   LDOWNSAMPLE  =      F    k-point downsampling of WAVECAR
   LCHARG       =      T    write CHGCAR
   LVTOT        =      F    write LOCPOT, total local potential
   LVHAR        =      F    write LOCPOT, Hartree potential only
   WRT_POTENTIAL= false  ! write potential to hdf5 file
   LELF         =      F    write electronic localiz. function (ELF)
   LORBIT       =      0    0 simple, 1 ext, 2 COOP (PROOUT), +10 PAW based schemes


 Dipole corrections
   LMONO      =      F    monopole corrections only (constant potential shift)
   LDIPOL     =      F    correct potential (dipole corrections)
   IDIPOL     =      0    1-x, 2-y, 3-z, 4-all directions 
   EPSILON    =  1.0000000 bulk dielectric constant
   LVACPOTAV  =      F  vacuum potentials using an averaging scheme for the charge density
   VACPOTFLAT =  0.1000000 required flatness to determine vacuum potential
 Exchange correlation treatment:
   GGA     = PE    functional components
   XC_C    = 1    coefficients multiplying the functional components
   LIBXC   =     F    Libxc                    
   VOSKOWN =     0    Vosko Wilk Nusair interpolation
   LHFCALC =     F    Hartree Fock is set to
   LHFONE  =     F    Hartree Fock one center treatment
   AEXX    =    0.0000 exact exchange contribution

 Parameters of functionals:
   PE:
     No parameter

 Van der Waals corrections
   IVDW    =     0    specifies the selected vdW correction

 Linear response parameters
   LEPSILON=     F    determine dielectric tensor
   LRPA    =     F    only Hartree local field effects (RPA)
   LNABLA  =     F    use nabla operator in PAW spheres
   LVEL    =     F    velocity operator in full k-point grid
   CSHIFT  =0.1000    complex shift for real part using Kramers Kronig
   OMEGAMAX=  -1.0    maximum frequency
   DEG_THRESHOLD= 0.2000000E-02 threshold for treating states as degnerate
   RTIME   =   -0.100 relaxation time in fs
  (WPLASMAI=    0.000 imaginary part of plasma frequency in eV, 0.658/RTIME)
   DFIELD  = 0.0000000 0.0000000 0.0000000 field for delta impulse in time

  Optional k-point grid parameters
   LKPOINTS_OPT  =     F    use optional k-point grid
   KPOINTS_OPT_MODE=     1    mode for optional k-point grid

 Orbital magnetization related:
   ORBITALMAG=     F  switch on orbital magnetization
   LCHIMAG   =     F  perturbation theory with respect to B field
   DQ        =  0.001000  dq finite difference perturbation B field
   LLRAUG    =     F  two centre corrections for induced B field
   LBONE     =     F  B-component reconstruction in AE one-centre
   LVGVCALC  =     T  calculate vGv susceptibility
   LVGVAPPL  =     F  apply vGv susceptibility instead of pGv for G=0

 Random number generation:
   RANDOM_GENERATOR = DEFAULT
   PCG_SEED         = not used


--------------------------------------------------------------------------------------------------------


 Static calculation
 charge density and potential remain constant during run
 non-spin polarized calculation
 Variant of blocked Davidson
 Davidson routine will perform the subspace rotation
 perform sub-space diagonalisation
    after iterative eigenvector-optimisation
 no mixing
 using additional bands            5
 reciprocal scheme for non local part
 use partial core corrections
 calculate Harris-corrections to forces   (improved forces if not selfconsistent)
 use gradient corrections 
 WARNING: stress and forces are not correct
  (second derivative of E(xc) not defined)
 use of overlap-Matrix (Vanderbilt PP)
 Gauss-broadening in eV      SIGMA  =   0.03


--------------------------------------------------------------------------------------------------------


  energy-cutoff  :      520.00
  volume of cell :      113.71
      direct lattice vectors                 reciprocal lattice vectors
     2.458278904 -4.257863960  0.000000000     0.203394334 -0.117429773  0.000000000
     2.458278904  4.257863960  0.000000000     0.203394334  0.117429773 -0.000000000
     0.000000000  0.000000000  5.431625250    -0.000000000  0.000000000  0.184106958

  length of vectors
     4.916557807  4.916557807  5.431625250     0.234859547  0.234859547  0.184106958



 old parameters found on file WAVECAR:
  energy-cutoff  :      520.00
  volume of cell :      113.71
      direct lattice vectors                 reciprocal lattice vectors
     2.458278904 -4.257863960  0.000000000     0.203394334 -0.117429773  0.000000000
     2.458278904  4.257863960  0.000000000     0.203394334  0.117429773 -0.000000000
     0.000000000  0.000000000  5.431625250    -0.000000000  0.000000000  0.184106958

  length of vectors


 k-points in units of 2pi/SCALE and weight: K-Path Generated by vasputils.          
   0.00000000  0.00000000  0.00000000       0.010
   0.00000000  0.00000000  0.00484492       0.010
   0.00000000  0.00000000  0.00968984       0.010
   0.00000000  0.00000000  0.01453476       0.010
   0.00000000  0.00000000  0.01937968       0.010
   0.00000000  0.00000000  0.02422460       0.010
   0.00000000  0.00000000  0.02906952       0.010
   0.00000000  0.00000000  0.03391444       0.010
   0.00000000  0.00000000  0.03875936       0.010
   0.00000000  0.00000000  0.04360428       0.010
   0.00000000  0.00000000  0.04844920       0.010
   0.00000000  0.00000000  0.05329412       0.010
   0.00000000  0.00000000  0.05813904       0.010
   0.00000000  0.00000000  0.06298396       0.010
   0.00000000  0.00000000  0.06782888       0.010
   0.00000000  0.00000000  0.07267380       0.010
   0.00000000  0.00000000  0.07751872       0.010
   0.00000000  0.00000000  0.08236364       0.010
   0.00000000  0.00000000  0.08720856       0.010
   0.00000000  0.00000000  0.09205348       0.010
   0.00000000  0.00000000  0.09205348       0.010
   0.00713664 -0.00000000  0.09205348       0.010
   0.01427329 -0.00000000  0.09205348       0.010
   0.02140993  0.00000000  0.09205348       0.010
   0.02854657 -0.00000000  0.09205348       0.010
   0.03568322 -0.00000000  0.09205348       0.010
   0.04281986  0.00000000  0.09205348       0.010
   0.04995650  0.00000000  0.09205348       0.010
   0.05709315 -0.00000000  0.09205348       0.010
   0.06422979  0.00000000  0.09205348       0.010
   0.07136643 -0.00000000  0.09205348       0.010
   0.07850308  0.00000000  0.09205348       0.010
   0.08563972  0.00000000  0.09205348       0.010
   0.09277636 -0.00000000  0.09205348       0.010
   0.09991301  0.00000000  0.09205348       0.010
   0.10704965 -0.00000000  0.09205348       0.010
   0.11418629 -0.00000000  0.09205348       0.010
   0.12132294  0.00000000  0.09205348       0.010
   0.12845958  0.00000000  0.09205348       0.010
   0.13559622  0.00000000  0.09205348       0.010
   0.13559622  0.00000000  0.09205348       0.010
   0.13559622  0.00000000  0.08720856       0.010
   0.13559622  0.00000000  0.08236364       0.010
   0.13559622  0.00000000  0.07751872       0.010
   0.13559622  0.00000000  0.07267380       0.010
   0.13559622  0.00000000  0.06782888       0.010
   0.13559622  0.00000000  0.06298396       0.010
   0.13559622  0.00000000  0.05813904       0.010
   0.13559622  0.00000000  0.05329412       0.010
   0.13559622  0.00000000  0.04844920       0.010
   0.13559622  0.00000000  0.04360428       0.010
   0.13559622  0.00000000  0.03875936       0.010
   0.13559622  0.00000000  0.03391444       0.010
   0.13559622  0.00000000  0.02906952       0.010
   0.13559622  0.00000000  0.02422460       0.010
   0.13559622  0.00000000  0.01937968       0.010
   0.13559622  0.00000000  0.01453476       0.010
   0.13559622  0.00000000  0.00968984       0.010
   0.13559622  0.00000000  0.00484492       0.010
   0.13559622  0.00000000  0.00000000       0.010
   0.13559622  0.00000000  0.00000000       0.010
   0.13381206 -0.00309026  0.00484492       0.010
   0.13202790 -0.00618051  0.00968984       0.010
   0.13024374 -0.00927077  0.01453476       0.010
   0.12845958 -0.01236103  0.01937968       0.010
   0.12667542 -0.01545129  0.02422460       0.010
   0.12489126 -0.01854154  0.02906952       0.010
   0.12310710 -0.02163180  0.03391444       0.010
   0.12132294 -0.02472206  0.03875936       0.010
   0.11953878 -0.02781231  0.04360428       0.010
   0.11775461 -0.03090257  0.04844920       0.010
   0.11597045 -0.03399283  0.05329412       0.010
   0.11418629 -0.03708309  0.05813904       0.010
   0.11240213 -0.04017334  0.06298396       0.010
   0.11061797 -0.04326360  0.06782888       0.010
   0.10883381 -0.04635386  0.07267380       0.010
   0.10704965 -0.04944412  0.07751872       0.010
   0.10526549 -0.05253437  0.08236364       0.010
   0.10348133 -0.05562463  0.08720856       0.010
   0.10169717 -0.05871489  0.09205348       0.010
   0.10169717 -0.05871489  0.09205348       0.010
   0.10169717 -0.05871489  0.08720856       0.010
   0.10169717 -0.05871489  0.08236364       0.010
   0.10169717 -0.05871489  0.07751872       0.010
   0.10169717 -0.05871489  0.07267380       0.010
   0.10169717 -0.05871489  0.06782888       0.010
   0.10169717 -0.05871489  0.06298396       0.010
   0.10169717 -0.05871489  0.05813904       0.010
   0.10169717 -0.05871489  0.05329412       0.010
   0.10169717 -0.05871489  0.04844920       0.010
   0.10169717 -0.05871489  0.04360428       0.010
   0.10169717 -0.05871489  0.03875936       0.010
   0.10169717 -0.05871489  0.03391444       0.010
   0.10169717 -0.05871489  0.02906952       0.010
   0.10169717 -0.05871489  0.02422460       0.010
   0.10169717 -0.05871489  0.01937968       0.010
   0.10169717 -0.05871489  0.01453476       0.010
   0.10169717 -0.05871489  0.00968984       0.010
   0.10169717 -0.05871489  0.00484492       0.010
   0.10169717 -0.05871489  0.00000000       0.010

 k-points in reciprocal lattice and weights: K-Path Generated by vasputils.          
   0.00000000  0.00000000  0.00000000       0.010
   0.00000000  0.00000000  0.02631579       0.010
   0.00000000  0.00000000  0.05263158       0.010
   0.00000000  0.00000000  0.07894737       0.010
   0.00000000  0.00000000  0.10526316       0.010
   0.00000000  0.00000000  0.13157895       0.010
   0.00000000  0.00000000  0.15789474       0.010
   0.00000000  0.00000000  0.18421053       0.010
   0.00000000  0.00000000  0.21052632       0.010
   0.00000000  0.00000000  0.23684211       0.010
   0.00000000  0.00000000  0.26315789       0.010
   0.00000000  0.00000000  0.28947368       0.010
   0.00000000  0.00000000  0.31578947       0.010
   0.00000000  0.00000000  0.34210526       0.010
   0.00000000  0.00000000  0.36842105       0.010
   0.00000000  0.00000000  0.39473684       0.010
   0.00000000  0.00000000  0.42105263       0.010
   0.00000000  0.00000000  0.44736842       0.010
   0.00000000  0.00000000  0.47368421       0.010
   0.00000000  0.00000000  0.50000000       0.010
   0.00000000  0.00000000  0.50000000       0.010
   0.01754386  0.01754386  0.50000000       0.010
   0.03508772  0.03508772  0.50000000       0.010
   0.05263158  0.05263158  0.50000000       0.010
   0.07017544  0.07017544  0.50000000       0.010
   0.08771930  0.08771930  0.50000000       0.010
   0.10526316  0.10526316  0.50000000       0.010
   0.12280702  0.12280702  0.50000000       0.010
   0.14035088  0.14035088  0.50000000       0.010
   0.15789474  0.15789474  0.50000000       0.010
   0.17543860  0.17543860  0.50000000       0.010
   0.19298246  0.19298246  0.50000000       0.010
   0.21052632  0.21052632  0.50000000       0.010
   0.22807018  0.22807018  0.50000000       0.010
   0.24561404  0.24561404  0.50000000       0.010
   0.26315789  0.26315789  0.50000000       0.010
   0.28070175  0.28070175  0.50000000       0.010
   0.29824561  0.29824561  0.50000000       0.010
   0.31578947  0.31578947  0.50000000       0.010
   0.33333333  0.33333333  0.50000000       0.010
   0.33333333  0.33333333  0.50000000       0.010
   0.33333333  0.33333333  0.47368421       0.010
   0.33333333  0.33333333  0.44736842       0.010
   0.33333333  0.33333333  0.42105263       0.010
   0.33333333  0.33333333  0.39473684       0.010
   0.33333333  0.33333333  0.36842105       0.010
   0.33333333  0.33333333  0.34210526       0.010
   0.33333333  0.33333333  0.31578947       0.010
   0.33333333  0.33333333  0.28947368       0.010
   0.33333333  0.33333333  0.26315789       0.010
   0.33333333  0.33333333  0.23684211       0.010
   0.33333333  0.33333333  0.21052632       0.010
   0.33333333  0.33333333  0.18421053       0.010
   0.33333333  0.33333333  0.15789474       0.010
   0.33333333  0.33333333  0.13157895       0.010
   0.33333333  0.33333333  0.10526316       0.010
   0.33333333  0.33333333  0.07894737       0.010
   0.33333333  0.33333333  0.05263158       0.010
   0.33333333  0.33333333  0.02631579       0.010
   0.33333333  0.33333333  0.00000000       0.010
   0.33333333  0.33333333  0.00000000       0.010
   0.34210526  0.31578947  0.02631579       0.010
   0.35087719  0.29824561  0.05263158       0.010
   0.35964912  0.28070175  0.07894737       0.010
   0.36842105  0.26315789  0.10526316       0.010
   0.37719298  0.24561404  0.13157895       0.010
   0.38596491  0.22807018  0.15789474       0.010
   0.39473684  0.21052632  0.18421053       0.010
   0.40350877  0.19298246  0.21052632       0.010
   0.41228070  0.17543860  0.23684211       0.010
   0.42105263  0.15789474  0.26315789       0.010
   0.42982456  0.14035088  0.28947368       0.010
   0.43859649  0.12280702  0.31578947       0.010
   0.44736842  0.10526316  0.34210526       0.010
   0.45614035  0.08771930  0.36842105       0.010
   0.46491228  0.07017544  0.39473684       0.010
   0.47368421  0.05263158  0.42105263       0.010
   0.48245614  0.03508772  0.44736842       0.010
   0.49122807  0.01754386  0.47368421       0.010
   0.50000000 -0.00000000  0.50000000       0.010
   0.50000000  0.00000000  0.50000000       0.010
   0.50000000  0.00000000  0.47368421       0.010
   0.50000000  0.00000000  0.44736842       0.010
   0.50000000  0.00000000  0.42105263       0.010
   0.50000000  0.00000000  0.39473684       0.010
   0.50000000  0.00000000  0.36842105       0.010
   0.50000000  0.00000000  0.34210526       0.010
   0.50000000  0.00000000  0.31578947       0.010
   0.50000000  0.00000000  0.28947368       0.010
   0.50000000  0.00000000  0.26315789       0.010
   0.50000000  0.00000000  0.23684211       0.010
   0.50000000  0.00000000  0.21052632       0.010
   0.50000000  0.00000000  0.18421053       0.010
   0.50000000  0.00000000  0.15789474       0.010
   0.50000000  0.00000000  0.13157895       0.010
   0.50000000  0.00000000  0.10526316       0.010
   0.50000000  0.00000000  0.07894737       0.010
   0.50000000  0.00000000  0.05263158       0.010
   0.50000000  0.00000000  0.02631579       0.010
   0.50000000  0.00000000  0.00000000       0.010

 position of ions in fractional coordinates (direct lattice) 
   0.00000000  0.46879823  0.33333333
   0.53120177  0.53120177  0.00000000
   0.46879823  0.00000000  0.66666667
   0.14453836  0.73143979  0.54781960
   0.58690143  0.85546164  0.88115293
   0.26856021  0.41309857  0.21448627
   0.41309857  0.26856021  0.78551373
   0.85546164  0.58690143  0.11884707
   0.73143979  0.14453836  0.45218040

 position of ions in cartesian coordinates  (Angst):
   1.15243680  1.99607909  1.81054175
   2.61168421  0.00000000  0.00000000
   1.15243680 -1.99607909  3.62108350
   2.15339861  2.49894645  2.97555077
   3.54573071  1.14349284  4.78609252
   1.67570740  0.61542467  1.16500902
   1.67570740 -0.61542467  4.26661623
   3.54573071 -1.14349284  0.64553273
   2.15339861 -2.49894645  2.45607448



--------------------------------------------------------------------------------------------------------


 k-point     1 :   0.0000 0.0000 0.0000  plane waves:    3051
 k-point     2 :   0.0000 0.0000 0.0263  plane waves:    3057
 k-point     3 :   0.0000 0.0000 0.0526  plane waves:    3045
 k-point     4 :   0.0000 0.0000 0.0789  plane waves:    3045
 k-point     5 :   0.0000 0.0000 0.1053  plane waves:    3038
 k-point     6 :   0.0000 0.0000 0.1316  plane waves:    3044
 k-point     7 :   0.0000 0.0000 0.1579  plane waves:    3050
 k-point     8 :   0.0000 0.0000 0.1842  plane waves:    3032
 k-point     9 :   0.0000 0.0000 0.2105  plane waves:    3020
 k-point    10 :   0.0000 0.0000 0.2368  plane waves:    3014
 k-point    11 :   0.0000 0.0000 0.2632  plane waves:    3014
 k-point    12 :   0.0000 0.0000 0.2895  plane waves:    3038
 k-point    13 :   0.0000 0.0000 0.3158  plane waves:    3038
 k-point    14 :   0.0000 0.0000 0.3421  plane waves:    3050
 k-point    15 :   0.0000 0.0000 0.3684  plane waves:    3056
 k-point    16 :   0.0000 0.0000 0.3947  plane waves:    3062
 k-point    17 :   0.0000 0.0000 0.4211  plane waves:    3068
 k-point    18 :   0.0000 0.0000 0.4474  plane waves:    3056
 k-point    19 :   0.0000 0.0000 0.4737  plane waves:    3044
 k-point    20 :   0.0000 0.0000 0.5000  plane waves:    3068
 k-point    21 :   0.0000 0.0000 0.5000  plane waves:    3068
 k-point    22 :   0.0175 0.0175 0.5000  plane waves:    3060
 k-point    23 :   0.0351 0.0351 0.5000  plane waves:    3060
 k-point    24 :   0.0526 0.0526 0.5000  plane waves:    3048
 k-point    25 :   0.0702 0.0702 0.5000  plane waves:    3042
 k-point    26 :   0.0877 0.0877 0.5000  plane waves:    3046
 k-point    27 :   0.1053 0.1053 0.5000  plane waves:    3052
 k-point    28 :   0.1228 0.1228 0.5000  plane waves:    3056
 k-point    29 :   0.1404 0.1404 0.5000  plane waves:    3048
 k-point    30 :   0.1579 0.1579 0.5000  plane waves:    3060
 k-point    31 :   0.1754 0.1754 0.5000  plane waves:    3062
 k-point    32 :   0.1930 0.1930 0.5000  plane waves:    3062
 k-point    33 :   0.2105 0.2105 0.5000  plane waves:    3066
 k-point    34 :   0.2281 0.2281 0.5000  plane waves:    3082
 k-point    35 :   0.2456 0.2456 0.5000  plane waves:    3090
 k-point    36 :   0.2632 0.2632 0.5000  plane waves:    3082
 k-point    37 :   0.2807 0.2807 0.5000  plane waves:    3078
 k-point    38 :   0.2982 0.2982 0.5000  plane waves:    3076
 k-point    39 :   0.3158 0.3158 0.5000  plane waves:    3084
 k-point    40 :   0.3333 0.3333 0.5000  plane waves:    3072
 k-point    41 :   0.3333 0.3333 0.5000  plane waves:    3072
 k-point    42 :   0.3333 0.3333 0.4737  plane waves:    3078
 k-point    43 :   0.3333 0.3333 0.4474  plane waves:    3084
 k-point    44 :   0.3333 0.3333 0.4211  plane waves:    3084
 k-point    45 :   0.3333 0.3333 0.3947  plane waves:    3081
 k-point    46 :   0.3333 0.3333 0.3684  plane waves:    3081
 k-point    47 :   0.3333 0.3333 0.3421  plane waves:    3081
 k-point    48 :   0.3333 0.3333 0.3158  plane waves:    3063
 k-point    49 :   0.3333 0.3333 0.2895  plane waves:    3057
 k-point    50 :   0.3333 0.3333 0.2632  plane waves:    3057
 k-point    51 :   0.3333 0.3333 0.2368  plane waves:    3057
 k-point    52 :   0.3333 0.3333 0.2105  plane waves:    3072
 k-point    53 :   0.3333 0.3333 0.1842  plane waves:    3063
 k-point    54 :   0.3333 0.3333 0.1579  plane waves:    3063
 k-point    55 :   0.3333 0.3333 0.1316  plane waves:    3069
 k-point    56 :   0.3333 0.3333 0.1053  plane waves:    3057
 k-point    57 :   0.3333 0.3333 0.0789  plane waves:    3054
 k-point    58 :   0.3333 0.3333 0.0526  plane waves:    3057
 k-point    59 :   0.3333 0.3333 0.0263  plane waves:    3060
 k-point    60 :   0.3333 0.3333 0.0000  plane waves:    3057
 k-point    61 :   0.3333 0.3333 0.0000  plane waves:    3057
 k-point    62 :   0.3421 0.3158 0.0263  plane waves:    3060
 k-point    63 :   0.3509 0.2982 0.0526  plane waves:    3062
 k-point    64 :   0.3596 0.2807 0.0789  plane waves:    3050
 k-point    65 :   0.3684 0.2632 0.1053  plane waves:    3056
 k-point    66 :   0.3772 0.2456 0.1316  plane waves:    3064
 k-point    67 :   0.3860 0.2281 0.1579  plane waves:    3070
 k-point    68 :   0.3947 0.2105 0.1842  plane waves:    3067
 k-point    69 :   0.4035 0.1930 0.2105  plane waves:    3059
 k-point    70 :   0.4123 0.1754 0.2368  plane waves:    3057
 k-point    71 :   0.4211 0.1579 0.2632  plane waves:    3057
 k-point    72 :   0.4298 0.1404 0.2895  plane waves:    3061
 k-point    73 :   0.4386 0.1228 0.3158  plane waves:    3062
 k-point    74 :   0.4474 0.1053 0.3421  plane waves:    3070
 k-point    75 :   0.4561 0.0877 0.3684  plane waves:    3076
 k-point    76 :   0.4649 0.0702 0.3947  plane waves:    3076
 k-point    77 :   0.4737 0.0526 0.4211  plane waves:    3081
 k-point    78 :   0.4825 0.0351 0.4474  plane waves:    3081
 k-point    79 :   0.4912 0.0175 0.4737  plane waves:    3079
 k-point    80 :   0.5000-0.0000 0.5000  plane waves:    3076
 k-point    81 :   0.5000 0.0000 0.5000  plane waves:    3076
 k-point    82 :   0.5000 0.0000 0.4737  plane waves:    3082
 k-point    83 :   0.5000 0.0000 0.4474  plane waves:    3078
 k-point    84 :   0.5000 0.0000 0.4211  plane waves:    3078
 k-point    85 :   0.5000 0.0000 0.3947  plane waves:    3064
 k-point    86 :   0.5000 0.0000 0.3684  plane waves:    3072
 k-point    87 :   0.5000 0.0000 0.3421  plane waves:    3080
 k-point    88 :   0.5000 0.0000 0.3158  plane waves:    3084
 k-point    89 :   0.5000 0.0000 0.2895  plane waves:    3070
 k-point    90 :   0.5000 0.0000 0.2632  plane waves:    3076
 k-point    91 :   0.5000 0.0000 0.2368  plane waves:    3068
 k-point    92 :   0.5000 0.0000 0.2105  plane waves:    3066
 k-point    93 :   0.5000 0.0000 0.1842  plane waves:    3070
 k-point    94 :   0.5000 0.0000 0.1579  plane waves:    3070
 k-point    95 :   0.5000 0.0000 0.1316  plane waves:    3066
 k-point    96 :   0.5000 0.0000 0.1053  plane waves:    3062
 k-point    97 :   0.5000 0.0000 0.0789  plane waves:    3054
 k-point    98 :   0.5000 0.0000 0.0526  plane waves:    3068
 k-point    99 :   0.5000 0.0000 0.0263  plane waves:    3062
 k-point   100 :   0.5000 0.0000 0.0000  plane waves:    3070

 maximum and minimum number of plane-waves per node :      3090     3014

 maximum number of plane-waves:      3090
 maximum index in each direction: 
   IXMAX=    9   IYMAX=    9   IZMAX=   10
   IXMIN=   -9   IYMIN=   -9   IZMIN=  -10


 serial   3D FFT for wavefunctions
 parallel 3D FFT for charge:
    minimum data exchange during FFTs selected (reduces bandwidth)


 total amount of memory used by VASP MPI-rank0   266372. kBytes
=======================================================================

   base      :      30000. kBytes
   nonl-proj :      39996. kBytes
   fftplans  :      17864. kBytes
   grid      :      31769. kBytes
   one-center:         27. kBytes
   wavefun   :     146716. kBytes

     INWAV:  cpu time      0.0588: real time      0.0926
 initial charge density was supplied:
 number of electron      48.0000003 magnetization 
 keeping initial charge density in first step


--------------------------------------------------------------------------------------------------------


 Maximum index for augmentation-charges        18266 (set IRDMAX)


--------------------------------------------------------------------------------------------------------


 First call to EWALD:  gamma=   0.366
 Maximum number of real-space cells 3x 3x 3
 Maximum number of reciprocal cells 3x 3x 3

    FEWALD:  cpu time      0.0285: real time      0.0232


--------------------------------------- Ionic step        1  -------------------------------------------




--------------------------------------- Iteration      1(   1)  ---------------------------------------


    POTLOK:  cpu time      0.2313: real time      0.4047
    SETDIJ:  cpu time      0.0122: real time      0.0059
     EDDAV:  cpu time    124.1470: real time     50.0019
       DOS:  cpu time      0.0007: real time      0.0014
    --------------------------------------------
      LOOP:  cpu time    124.3913: real time     50.4139

 eigenvalue-minimisations  :  6136
 total energy-change (2. order) :-0.6945379E+02  (-0.2593345E+02)
 number of electron      48.0000003 magnetization 
 augmentation part       48.0000003 magnetization 

 Free energy of the ion-electron system (eV)
  ---------------------------------------------------
  alpha Z        PSCENC =        69.31646906
  Ewald energy   TEWEN  =     -1890.11586297
  -Hartree energ DENC   =     -1067.48559120
  -exchange      EXHF   =         0.00000000
  -V(xc)+E(xc)   XCENC  =       150.52704511
  PAW double counting   =      7962.06749357    -7922.44085095
  entropy T*S    EENTRO =        -0.00000000
  eigenvalues    EBANDS =      -274.66946732
  atomic energy  EATOM  =      2903.34697324
  Solvation  Ediel_sol  =         0.00000000
  ---------------------------------------------------
  free energy    TOTEN  =       -69.45379148 eV

  energy without entropy =      -69.45379148  energy(sigma->0) =      -69.45379148


--------------------------------------------------------------------------------------------------------




--------------------------------------- Iteration      1(   2)  ---------------------------------------


     EDDAV:  cpu time    109.7536: real time     43.6597
       DOS:  cpu time      0.0006: real time      0.0006
    --------------------------------------------
      LOOP:  cpu time    109.7542: real time     43.6604

 eigenvalue-minimisations  :  6777
 total energy-change (2. order) :-0.1579927E+01  (-0.1575588E+01)
 number of electron      48.0000003 magnetization 
 augmentation part       48.0000003 magnetization 

 Free energy of the ion-electron system (eV)
  ---------------------------------------------------
  alpha Z        PSCENC =        69.31646906
  Ewald energy   TEWEN  =     -1890.11586297
  -Hartree energ DENC   =     -1067.48559120
  -exchange      EXHF   =         0.00000000
  -V(xc)+E(xc)   XCENC  =       150.52704511
  PAW double counting   =      7962.06749357    -7922.44085095
  entropy T*S    EENTRO =        -0.00000000
  eigenvalues    EBANDS =      -276.24939408
  atomic energy  EATOM  =      2903.34697324
  Solvation  Ediel_sol  =         0.00000000
  ---------------------------------------------------
  free energy    TOTEN  =       -71.03371824 eV

  energy without entropy =      -71.03371824  energy(sigma->0) =      -71.03371824


--------------------------------------------------------------------------------------------------------




--------------------------------------- Iteration      1(   3)  ---------------------------------------


     EDDAV:  cpu time    112.9700: real time     44.6532
       DOS:  cpu time      0.0006: real time      0.0006
    --------------------------------------------
      LOOP:  cpu time    112.9707: real time     44.6539

 eigenvalue-minimisations  :  6938
 total energy-change (2. order) :-0.2216236E-01  (-0.2213916E-01)
 number of electron      48.0000003 magnetization 
 augmentation part       48.0000003 magnetization 

 Free energy of the ion-electron system (eV)
  ---------------------------------------------------
  alpha Z        PSCENC =        69.31646906
  Ewald energy   TEWEN  =     -1890.11586297
  -Hartree energ DENC   =     -1067.48559120
  -exchange      EXHF   =         0.00000000
  -V(xc)+E(xc)   XCENC  =       150.52704511
  PAW double counting   =      7962.06749357    -7922.44085095
  entropy T*S    EENTRO =        -0.00000000
  eigenvalues    EBANDS =      -276.27155644
  atomic energy  EATOM  =      2903.34697324
  Solvation  Ediel_sol  =         0.00000000
  ---------------------------------------------------
  free energy    TOTEN  =       -71.05588060 eV

  energy without entropy =      -71.05588060  energy(sigma->0) =      -71.05588060


--------------------------------------------------------------------------------------------------------




--------------------------------------- Iteration      1(   4)  ---------------------------------------


     EDDAV:  cpu time    109.1160: real time     43.7357
       DOS:  cpu time      0.0006: real time      0.0006
    --------------------------------------------
      LOOP:  cpu time    109.1166: real time     43.7363

 eigenvalue-minimisations  :  6778
 total energy-change (2. order) :-0.6260127E-03  (-0.6258201E-03)
 number of electron      48.0000003 magnetization 
 augmentation part       48.0000003 magnetization 

 Free energy of the ion-electron system (eV)
  ---------------------------------------------------
  alpha Z        PSCENC =        69.31646906
  Ewald energy   TEWEN  =     -1890.11586297
  -Hartree energ DENC   =     -1067.48559120
  -exchange      EXHF   =         0.00000000
  -V(xc)+E(xc)   XCENC  =       150.52704511
  PAW double counting   =      7962.06749357    -7922.44085095
  entropy T*S    EENTRO =        -0.00000000
  eigenvalues    EBANDS =      -276.27218245
  atomic energy  EATOM  =      2903.34697324
  Solvation  Ediel_sol  =         0.00000000
  ---------------------------------------------------
  free energy    TOTEN  =       -71.05650661 eV

  energy without entropy =      -71.05650661  energy(sigma->0) =      -71.05650661


--------------------------------------------------------------------------------------------------------




--------------------------------------- Iteration      1(   5)  ---------------------------------------


     EDDAV:  cpu time    113.8362: real time     44.7589
       DOS:  cpu time      0.0006: real time      0.0006
    --------------------------------------------
      LOOP:  cpu time    113.8368: real time     44.7595

 eigenvalue-minimisations  :  6823
 total energy-change (2. order) :-0.2640925E-04  (-0.2640566E-04)
 number of electron      48.0000003 magnetization 
 augmentation part       48.0000003 magnetization 

 Free energy of the ion-electron system (eV)
  ---------------------------------------------------
  alpha Z        PSCENC =        69.31646906
  Ewald energy   TEWEN  =     -1890.11586297
  -Hartree energ DENC   =     -1067.48559120
  -exchange      EXHF   =         0.00000000
  -V(xc)+E(xc)   XCENC  =       150.52704511
  PAW double counting   =      7962.06749357    -7922.44085095
  entropy T*S    EENTRO =        -0.00000000
  eigenvalues    EBANDS =      -276.27220886
  atomic energy  EATOM  =      2903.34697324
  Solvation  Ediel_sol  =         0.00000000
  ---------------------------------------------------
  free energy    TOTEN  =       -71.05653302 eV

  energy without entropy =      -71.05653302  energy(sigma->0) =      -71.05653302


--------------------------------------------------------------------------------------------------------




--------------------------------------- Iteration      1(   6)  ---------------------------------------


     EDDAV:  cpu time     95.6262: real time     37.9199
       DOS:  cpu time      0.0006: real time      0.0006
    --------------------------------------------
      LOOP:  cpu time     95.6268: real time     37.9205

 eigenvalue-minimisations  :  5495
 total energy-change (2. order) :-0.1314770E-05  (-0.1314659E-05)
 number of electron      48.0000003 magnetization 
 augmentation part       48.0000003 magnetization 

 Free energy of the ion-electron system (eV)
  ---------------------------------------------------
  alpha Z        PSCENC =        69.31646906
  Ewald energy   TEWEN  =     -1890.11586297
  -Hartree energ DENC   =     -1067.48559120
  -exchange      EXHF   =         0.00000000
  -V(xc)+E(xc)   XCENC  =       150.52704511
  PAW double counting   =      7962.06749357    -7922.44085095
  entropy T*S    EENTRO =        -0.00000000
  eigenvalues    EBANDS =      -276.27221018
  atomic energy  EATOM  =      2903.34697324
  Solvation  Ediel_sol  =         0.00000000
  ---------------------------------------------------
  free energy    TOTEN  =       -71.05653433 eV

  energy without entropy =      -71.05653433  energy(sigma->0) =      -71.05653433


--------------------------------------------------------------------------------------------------------




--------------------------------------- Iteration      1(   7)  ---------------------------------------


     EDDAV:  cpu time     87.3439: real time     34.8079
       DOS:  cpu time      0.0006: real time      0.0006
    --------------------------------------------
      LOOP:  cpu time     87.3445: real time     34.8085

 eigenvalue-minimisations  :  4685
 total energy-change (2. order) :-0.6442588E-07  (-0.6441916E-07)
 number of electron      48.0000003 magnetization 
 augmentation part       48.0000003 magnetization 

 Free energy of the ion-electron system (eV)
  ---------------------------------------------------
  alpha Z        PSCENC =        69.31646906
  Ewald energy   TEWEN  =     -1890.11586297
  -Hartree energ DENC   =     -1067.48559120
  -exchange      EXHF   =         0.00000000
  -V(xc)+E(xc)   XCENC  =       150.52704511
  PAW double counting   =      7962.06749357    -7922.44085095
  entropy T*S    EENTRO =        -0.00000000
  eigenvalues    EBANDS =      -276.27221024
  atomic energy  EATOM  =      2903.34697324
  Solvation  Ediel_sol  =         0.00000000
  ---------------------------------------------------
  free energy    TOTEN  =       -71.05653440 eV

  energy without entropy =      -71.05653440  energy(sigma->0) =      -71.05653440


--------------------------------------------------------------------------------------------------------




--------------------------------------- Iteration      1(   8)  ---------------------------------------


     EDDAV:  cpu time     83.5206: real time     32.8553
       DOS:  cpu time      0.0006: real time      0.0006
    --------------------------------------------
      LOOP:  cpu time     83.5213: real time     32.8559

 eigenvalue-minimisations  :  4365
 total energy-change (2. order) :-0.4822141E-08  (-0.4847540E-08)
 number of electron      48.0000003 magnetization 
 augmentation part       48.0000003 magnetization 

 Free energy of the ion-electron system (eV)
  ---------------------------------------------------
  alpha Z        PSCENC =        69.31646906
  Ewald energy   TEWEN  =     -1890.11586297
  -Hartree energ DENC   =     -1067.48559120
  -exchange      EXHF   =         0.00000000
  -V(xc)+E(xc)   XCENC  =       150.52704511
  PAW double counting   =      7962.06749357    -7922.44085095
  entropy T*S    EENTRO =        -0.00000000
  eigenvalues    EBANDS =      -276.27221025
  atomic energy  EATOM  =      2903.34697324
  Solvation  Ediel_sol  =         0.00000000
  ---------------------------------------------------
  free energy    TOTEN  =       -71.05653440 eV

  energy without entropy =      -71.05653440  energy(sigma->0) =      -71.05653440


--------------------------------------------------------------------------------------------------------




 average (electrostatic) potential at core
  the test charge radii are     0.9892  0.7215
  (the norm of the test charge is              1.0000)
       1 -86.4872       2 -86.4871       3 -86.4872       4 -72.4220       5 -72.4220
       6 -72.4220       7 -72.4220       8 -72.4220       9 -72.4220



 E-fermi :   1.2391     XC(G=0):  -9.1881     alpha+bet :-10.2795

 val. band max:        1.0580544141   @ k =   0.3333   0.3333   0.0000
 cond. band min:       7.0021844836   @ k =   0.0000   0.0000   0.0000
 fundamental gap:      5.9441300695
 Fermi energy:         1.2391038246

 k-point     1 :       0.0000    0.0000    0.0000
  band No.  band energies     occupation 
      1     -18.3509      2.00000
      2     -16.8397      2.00000
      3     -16.8396      2.00000
      4     -16.1877      2.00000
      5     -16.1610      2.00000
      6     -16.1609      2.00000
      7      -7.1761      2.00000
      8      -7.1760      2.00000
      9      -4.3605      2.00000
     10      -4.3371      2.00000
     11      -4.1527      2.00000
     12      -4.1527      2.00000
     13      -1.8617      2.00000
     14      -1.8617      2.00000
     15      -1.6164      2.00000
     16      -1.3823      2.00000
     17      -0.4208      2.00000
     18      -0.4208      2.00000
     19      -0.3932      2.00000
     20       0.0586      2.00000
     21       0.0586      2.00000
     22       0.3815      2.00000
     23       0.7523      2.00000
     24       0.7524      2.00000
     25       7.0022      0.00000
     26      10.3335      0.00000
     27      10.3336      0.00000
     28      10.7777      0.00000
     29      10.7777      0.00000

 k-point     2 :       0.0000    0.0000    0.0263
  band No.  band energies     occupation 
      1     -18.3496      2.00000
      2     -16.8959      2.00000
      3     -16.7847      2.00000
      4     -16.1877      2.00000
      5     -16.1626      2.00000
      6     -16.1593      2.00000
      7      -7.2753      2.00000
      8      -7.0741      2.00000
      9      -4.3657      2.00000
     10      -4.3353      2.00000
     11      -4.1897      2.00000
     12      -4.1145      2.00000
     13      -1.8829      2.00000
     14      -1.8386      2.00000
     15      -1.6155      2.00000
     16      -1.3797      2.00000
     17      -0.4252      2.00000
     18      -0.4179      2.00000
     19      -0.3973      2.00000
     20       0.0245      2.00000
     21       0.0845      2.00000
     22       0.3833      2.00000
     23       0.7347      2.00000
     24       0.7752      2.00000
     25       7.0093      0.00000
     26      10.2995      0.00000
     27      10.3651      0.00000
     28      10.7501      0.00000
     29      10.8039      0.00000

 k-point     3 :       0.0000    0.0000    0.0526
  band No.  band energies     occupation 
      1     -18.3455      2.00000
      2     -16.9529      2.00000
      3     -16.7308      2.00000
      4     -16.1876      2.00000
      5     -16.1641      2.00000
      6     -16.1576      2.00000
      7      -7.3715      2.00000
      8      -6.9697      2.00000
      9      -4.3783      2.00000
     10      -4.3331      2.00000
     11      -4.2255      2.00000
     12      -4.0753      2.00000
     13      -1.9017      2.00000
     14      -1.8141      2.00000
     15      -1.6128      2.00000
     16      -1.3720      2.00000
     17      -0.4311      2.00000
     18      -0.4164      2.00000
     19      -0.4096      2.00000
     20      -0.0161      2.00000
     21       0.1011      2.00000
     22       0.3886      2.00000
     23       0.7240      2.00000
     24       0.8014      2.00000
     25       7.0308      0.00000
     26      10.2657      0.00000
     27      10.3913      0.00000
     28      10.7186      0.00000
     29      10.8318      0.00000

 k-point     4 :       0.0000    0.0000    0.0789
  band No.  band energies     occupation 
      1     -18.3388      2.00000
      2     -17.0107      2.00000
      3     -16.6785      2.00000
      4     -16.1876      2.00000
      5     -16.1657      2.00000
      6     -16.1559      2.00000
      7      -7.4643      2.00000
      8      -6.8633      2.00000
      9      -4.3954      2.00000
     10      -4.3333      2.00000
     11      -4.2597      2.00000
     12      -4.0355      2.00000
     13      -1.9177      2.00000
     14      -1.7886      2.00000
     15      -1.6083      2.00000
     16      -1.3595      2.00000
     17      -0.4387      2.00000
     18      -0.4297      2.00000
     19      -0.4163      2.00000
     20      -0.0620      2.00000
     21       0.1078      2.00000
     22       0.3975      2.00000
     23       0.7211      2.00000
     24       0.8292      2.00000
     25       7.0662      0.00000
     26      10.2340      0.00000
     27      10.4092      0.00000
     28      10.6814      0.00000
     29      10.8644      0.00000

 k-point     5 :       0.0000    0.0000    0.1053
  band No.  band energies     occupation 
      1     -18.3293      2.00000
      2     -17.0690      2.00000
      3     -16.6280      2.00000
      4     -16.1875      2.00000
      5     -16.1672      2.00000
      6     -16.1542      2.00000
      7      -7.5533      2.00000
      8      -6.7553      2.00000
      9      -4.4161      2.00000
     10      -4.3366      2.00000
     11      -4.2924      2.00000
     12      -3.9951      2.00000
     13      -1.9306      2.00000
     14      -1.7628      2.00000
     15      -1.6020      2.00000
     16      -1.3425      2.00000
     17      -0.4572      2.00000
     18      -0.4480      2.00000
     19      -0.4175      2.00000
     20      -0.1120      2.00000
     21       0.1049      2.00000
     22       0.4097      2.00000
     23       0.7262      2.00000
     24       0.8572      2.00000
     25       7.1153      0.00000
     26      10.2061      0.00000
     27      10.4169      0.00000
     28      10.6371      0.00000
     29      10.9038      0.00000

 k-point     6 :       0.0000    0.0000    0.1316
  band No.  band energies     occupation 
      1     -18.3172      2.00000
      2     -17.1276      2.00000
      3     -16.5794      2.00000
      4     -16.1874      2.00000
      5     -16.1686      2.00000
      6     -16.1527      2.00000
      7      -7.6384      2.00000
      8      -6.6460      2.00000
      9      -4.4401      2.00000
     10      -4.3430      2.00000
     11      -4.3232      2.00000
     12      -3.9545      2.00000
     13      -1.9399      2.00000
     14      -1.7370      2.00000
     15      -1.5938      2.00000
     16      -1.3215      2.00000
     17      -0.4912      2.00000
     18      -0.4591      2.00000
     19      -0.4198      2.00000
     20      -0.1648      2.00000
     21       0.0939      2.00000
     22       0.4253      2.00000
     23       0.7383      2.00000
     24       0.8839      2.00000
     25       7.1774      0.00000
     26      10.1831      0.00000
     27      10.4137      0.00000
     28      10.5849      0.00000
     29      10.9510      0.00000

 k-point     7 :       0.0000    0.0000    0.1579
  band No.  band energies     occupation 
      1     -18.3025      2.00000
      2     -17.1863      2.00000
      3     -16.5330      2.00000
      4     -16.1872      2.00000
      5     -16.1701      2.00000
      6     -16.1511      2.00000
      7      -7.7191      2.00000
      8      -6.5358      2.00000
      9      -4.4673      2.00000
     10      -4.3525      2.00000
     11      -4.3523      2.00000
     12      -3.9140      2.00000
     13      -1.9454      2.00000
     14      -1.7120      2.00000
     15      -1.5839      2.00000
     16      -1.2969      2.00000
     17      -0.5309      2.00000
     18      -0.4720      2.00000
     19      -0.4231      2.00000
     20      -0.2198      2.00000
     21       0.0766      2.00000
     22       0.4441      2.00000
     23       0.7559      2.00000
     24       0.9084      2.00000
     25       7.2520      0.00000
     26      10.1658      0.00000
     27      10.4006      0.00000
     28      10.5244      0.00000
     29      11.0054      0.00000

 k-point     8 :       0.0000    0.0000    0.1842
  band No.  band energies     occupation 
      1     -18.2852      2.00000
      2     -17.2449      2.00000
      3     -16.4889      2.00000
      4     -16.1870      2.00000
      5     -16.1714      2.00000
      6     -16.1495      2.00000
      7      -7.7952      2.00000
      8      -6.4250      2.00000
      9      -4.4978      2.00000
     10      -4.3793      2.00000
     11      -4.3646      2.00000
     12      -3.8739      2.00000
     13      -1.9468      2.00000
     14      -1.6881      2.00000
     15      -1.5724      2.00000
     16      -1.2693      2.00000
     17      -0.5751      2.00000
     18      -0.4870      2.00000
     19      -0.4272      2.00000
     20      -0.2759      2.00000
     21       0.0552      2.00000
     22       0.4658      2.00000
     23       0.7772      2.00000
     24       0.9299      2.00000
     25       7.3383      0.00000
     26      10.1545      0.00000
     27      10.3794      0.00000
     28      10.4556      0.00000
     29      11.0657      0.00000

 k-point     9 :       0.0000    0.0000    0.2105
  band No.  band energies     occupation 
      1     -18.2652      2.00000
      2     -17.3034      2.00000
      3     -16.4474      2.00000
      4     -16.1868      2.00000
      5     -16.1726      2.00000
      6     -16.1479      2.00000
      7      -7.8663      2.00000
      8      -6.3141      2.00000
      9      -4.5317      2.00000
     10      -4.4043      2.00000
     11      -4.3790      2.00000
     12      -3.8346      2.00000
     13      -1.9439      2.00000
     14      -1.6660      2.00000
     15      -1.5596      2.00000
     16      -1.2394      2.00000
     17      -0.6224      2.00000
     18      -0.5044      2.00000
     19      -0.4318      2.00000
     20      -0.3325      2.00000
     21       0.0315      2.00000
     22       0.4903      2.00000
     23       0.8006      2.00000
     24       0.9477      2.00000
     25       7.4355      0.00000
     26      10.1483      0.00000
     27      10.3521      0.00000
     28      10.3798      0.00000
     29      11.1304      0.00000

 k-point    10 :       0.0000    0.0000    0.2368
  band No.  band energies     occupation 
      1     -18.2427      2.00000
      2     -17.3614      2.00000
      3     -16.4087      2.00000
      4     -16.1865      2.00000
      5     -16.1737      2.00000
      6     -16.1465      2.00000
      7      -7.9323      2.00000
      8      -6.2034      2.00000
      9      -4.5693      2.00000
     10      -4.4270      2.00000
     11      -4.3950      2.00000
     12      -3.7965      2.00000
     13      -1.9365      2.00000
     14      -1.6458      2.00000
     15      -1.5462      2.00000
     16      -1.2079      2.00000
     17      -0.6711      2.00000
     18      -0.5246      2.00000
     19      -0.4368      2.00000
     20      -0.3883      2.00000
     21       0.0071      2.00000
     22       0.5173      2.00000
     23       0.8248      2.00000
     24       0.9612      2.00000
     25       7.5426      0.00000
     26      10.1424      0.00000
     27      10.3024      0.00000
     28      10.3208      0.00000
     29      11.1978      0.00000

 k-point    11 :       0.0000    0.0000    0.2632
  band No.  band energies     occupation 
      1     -18.2177      2.00000
      2     -17.4190      2.00000
      3     -16.3730      2.00000
      4     -16.1863      2.00000
      5     -16.1749      2.00000
      6     -16.1452      2.00000
      7      -7.9929      2.00000
      8      -6.0934      2.00000
      9      -4.6110      2.00000
     10      -4.4476      2.00000
     11      -4.4119      2.00000
     12      -3.7599      2.00000
     13      -1.9247      2.00000
     14      -1.6281      2.00000
     15      -1.5328      2.00000
     16      -1.1757      2.00000
     17      -0.7192      2.00000
     18      -0.5486      2.00000
     19      -0.4421      2.00000
     20      -0.4417      2.00000
     21      -0.0169      2.00000
     22       0.5465      2.00000
     23       0.8488      2.00000
     24       0.9702      2.00000
     25       7.6587      0.00000
     26      10.1150      0.00000
     27      10.2459      0.00000
     28      10.2872      0.00000
     29      11.2666      0.00000

 k-point    12 :       0.0000    0.0000    0.2895
  band No.  band energies     occupation 
      1     -18.1903      2.00000
      2     -17.4759      2.00000
      3     -16.3406      2.00000
      4     -16.1861      2.00000
      5     -16.1760      2.00000
      6     -16.1442      2.00000
      7      -8.0478      2.00000
      8      -5.9845      2.00000
      9      -4.6570      2.00000
     10      -4.4658      2.00000
     11      -4.4291      2.00000
     12      -3.7254      2.00000
     13      -1.9083      2.00000
     14      -1.6130      2.00000
     15      -1.5208      2.00000
     16      -1.1437      2.00000
     17      -0.7641      2.00000
     18      -0.5785      2.00000
     19      -0.4915      2.00000
     20      -0.4464      2.00000
     21      -0.0397      2.00000
     22       0.5777      2.00000
     23       0.8718      2.00000
     24       0.9744      2.00000
     25       7.7830      0.00000
     26      10.0374      0.00000
     27      10.2393      0.00000
     28      10.2529      0.00000
     29      11.3355      0.00000

 k-point    13 :       0.0000    0.0000    0.3158
  band No.  band energies     occupation 
      1     -18.1605      2.00000
      2     -17.5320      2.00000
      3     -16.3115      2.00000
      4     -16.1857      2.00000
      5     -16.1771      2.00000
      6     -16.1431      2.00000
      7      -8.0968      2.00000
      8      -5.8769      2.00000
      9      -4.7075      2.00000
     10      -4.4815      2.00000
     11      -4.4460      2.00000
     12      -3.6934      2.00000
     13      -1.8873      2.00000
     14      -1.6005      2.00000
     15      -1.5115      2.00000
     16      -1.1133      2.00000
     17      -0.8025      2.00000
     18      -0.6161      2.00000
     19      -0.5340      2.00000
     20      -0.4505      2.00000
     21      -0.0606      2.00000
     22       0.6105      2.00000
     23       0.8931      2.00000
     24       0.9737      2.00000
     25       7.9144      0.00000
     26       9.9302      0.00000
     27      10.2194      0.00000
     28      10.2629      0.00000
     29      11.5042      0.00000

 k-point    14 :       0.0000    0.0000    0.3421
  band No.  band energies     occupation 
      1     -18.1283      2.00000
      2     -17.5871      2.00000
      3     -16.2859      2.00000
      4     -16.1854      2.00000
      5     -16.1781      2.00000
      6     -16.1421      2.00000
      7      -8.1397      2.00000
      8      -5.7711      2.00000
      9      -4.7628      2.00000
     10      -4.4949      2.00000
     11      -4.4621      2.00000
     12      -3.6643      2.00000
     13      -1.8620      2.00000
     14      -1.5905      2.00000
     15      -1.5071      2.00000
     16      -1.0859      2.00000
     17      -0.8308      2.00000
     18      -0.6608      2.00000
     19      -0.5698      2.00000
     20      -0.4540      2.00000
     21      -0.0792      2.00000
     22       0.6445      2.00000
     23       0.9122      2.00000
     24       0.9682      2.00000
     25       8.0519      0.00000
     26       9.8093      0.00000
     27      10.1879      0.00000
     28      10.3015      0.00000
     29      11.3871      0.00000

 k-point    15 :       0.0000    0.0000    0.3684
  band No.  band energies     occupation 
      1     -18.0939      2.00000
      2     -17.6410      2.00000
      3     -16.2639      2.00000
      4     -16.1851      2.00000
      5     -16.1790      2.00000
[...]
      4     -16.2629      2.00000
      5     -16.2257      2.00000
      6     -16.1835      2.00000
      7      -7.2397      2.00000
      8      -6.2487      2.00000
      9      -5.1420      2.00000
     10      -4.3360      2.00000
     11      -4.0271      2.00000
     12      -3.7404      2.00000
     13      -2.0782      2.00000
     14      -2.0064      2.00000
     15      -1.4365      2.00000
     16      -1.2349      2.00000
     17      -0.8562      2.00000
     18      -0.6704      2.00000
     19      -0.3641      2.00000
     20      -0.0966      2.00000
     21       0.1019      2.00000
     22       0.3558      2.00000
     23       0.5964      2.00000
     24       0.9392      2.00000
     25       9.5595      0.00000
     26      10.1044      0.00000
     27      10.5854      0.00000
     28      11.0592      0.00000
     29      11.5177      0.00000

 k-point    91 :       0.5000    0.0000    0.2368
  band No.  band energies     occupation 
      1     -17.8346      2.00000
      2     -17.3753      2.00000
      3     -16.8422      2.00000
      4     -16.2606      2.00000
      5     -16.2270      2.00000
      6     -16.1841      2.00000
      7      -7.2522      2.00000
      8      -6.2579      2.00000
      9      -5.1037      2.00000
     10      -4.3444      2.00000
     11      -4.0613      2.00000
     12      -3.7073      2.00000
     13      -2.0683      2.00000
     14      -1.9854      2.00000
     15      -1.4542      2.00000
     16      -1.2509      2.00000
     17      -0.8430      2.00000
     18      -0.7009      2.00000
     19      -0.3933      2.00000
     20      -0.0982      2.00000
     21       0.1085      2.00000
     22       0.3378      2.00000
     23       0.6323      2.00000
     24       0.9515      2.00000
     25       9.5073      0.00000
     26      10.0871      0.00000
     27      10.5801      0.00000
     28      11.0494      0.00000
     29      11.5012      0.00000

 k-point    92 :       0.5000    0.0000    0.2105
  band No.  band energies     occupation 
      1     -17.8399      2.00000
      2     -17.3779      2.00000
      3     -16.8321      2.00000
      4     -16.2589      2.00000
      5     -16.2278      2.00000
      6     -16.1849      2.00000
      7      -7.2645      2.00000
      8      -6.2670      2.00000
      9      -5.0636      2.00000
     10      -4.3515      2.00000
     11      -4.0976      2.00000
     12      -3.6758      2.00000
     13      -2.0582      2.00000
     14      -1.9639      2.00000
     15      -1.4734      2.00000
     16      -1.2625      2.00000
     17      -0.8364      2.00000
     18      -0.7258      2.00000
     19      -0.4226      2.00000
     20      -0.0980      2.00000
     21       0.1127      2.00000
     22       0.3213      2.00000
     23       0.6648      2.00000
     24       0.9638      2.00000
     25       9.4583      0.00000
     26      10.0721      0.00000
     27      10.5782      0.00000
     28      11.0299      0.00000
     29      11.4976      0.00000

 k-point    93 :       0.5000    0.0000    0.1842
  band No.  band energies     occupation 
      1     -17.8450      2.00000
      2     -17.3804      2.00000
      3     -16.8224      2.00000
      4     -16.2580      2.00000
      5     -16.2280      2.00000
      6     -16.1859      2.00000
      7      -7.2760      2.00000
      8      -6.2756      2.00000
      9      -5.0224      2.00000
     10      -4.3572      2.00000
     11      -4.1356      2.00000
     12      -3.6465      2.00000
     13      -2.0482      2.00000
     14      -1.9424      2.00000
     15      -1.4940      2.00000
     16      -1.2689      2.00000
     17      -0.8431      2.00000
     18      -0.7386      2.00000
     19      -0.4515      2.00000
     20      -0.0957      2.00000
     21       0.1130      2.00000
     22       0.3077      2.00000
     23       0.6938      2.00000
     24       0.9758      2.00000
     25       9.4135      0.00000
     26      10.0589      0.00000
     27      10.5803      0.00000
     28      11.0012      0.00000
     29      11.5066      0.00000

 k-point    94 :       0.5000    0.0000    0.1579
  band No.  band energies     occupation 
      1     -17.8496      2.00000
      2     -17.3827      2.00000
      3     -16.8134      2.00000
      4     -16.2577      2.00000
      5     -16.2274      2.00000
      6     -16.1868      2.00000
      7      -7.2867      2.00000
      8      -6.2836      2.00000
      9      -4.9810      2.00000
     10      -4.3616      2.00000
     11      -4.1744      2.00000
     12      -3.6199      2.00000
     13      -2.0387      2.00000
     14      -1.9213      2.00000
     15      -1.5153      2.00000
     16      -1.2696      2.00000
     17      -0.8646      2.00000
     18      -0.7372      2.00000
     19      -0.4794      2.00000
     20      -0.0911      2.00000
     21       0.1085      2.00000
     22       0.2977      2.00000
     23       0.7191      2.00000
     24       0.9872      2.00000
     25       9.3737      0.00000
     26      10.0473      0.00000
     27      10.5867      0.00000
     28      10.9657      0.00000
     29      11.5217      0.00000

 k-point    95 :       0.5000    0.0000    0.1316
  band No.  band energies     occupation 
      1     -17.8536      2.00000
      2     -17.3848      2.00000
      3     -16.8053      2.00000
      4     -16.2579      2.00000
      5     -16.2264      2.00000
      6     -16.1878      2.00000
      7      -7.2961      2.00000
      8      -6.2907      2.00000
      9      -4.9404      2.00000
     10      -4.3649      2.00000
     11      -4.2129      2.00000
     12      -3.5965      2.00000
     13      -2.0301      2.00000
     14      -1.9010      2.00000
     15      -1.5369      2.00000
     16      -1.2647      2.00000
     17      -0.8944      2.00000
     18      -0.7278      2.00000
     19      -0.5058      2.00000
     20      -0.0842      2.00000
     21       0.0991      2.00000
     22       0.2916      2.00000
     23       0.7404      2.00000
     24       0.9976      2.00000
     25       9.3393      0.00000
     26      10.0374      0.00000
     27      10.5974      0.00000
     28      10.9259      0.00000
     29      11.5385      0.00000

 k-point    96 :       0.5000    0.0000    0.1053
  band No.  band energies     occupation 
      1     -17.8571      2.00000
      2     -17.3865      2.00000
      3     -16.7984      2.00000
      4     -16.2585      2.00000
      5     -16.2251      2.00000
      6     -16.1887      2.00000
      7      -7.3041      2.00000
      8      -6.2968      2.00000
      9      -4.9021      2.00000
     10      -4.3670      2.00000
     11      -4.2501      2.00000
     12      -3.5767      2.00000
     13      -2.0229      2.00000
     14      -1.8821      2.00000
     15      -1.5578      2.00000
     16      -1.2547      2.00000
     17      -0.9269      2.00000
     18      -0.7155      2.00000
     19      -0.5301      2.00000
     20      -0.0751      2.00000
     21       0.0858      2.00000
     22       0.2888      2.00000
     23       0.7579      2.00000
     24       1.0066      2.00000
     25       9.3108      0.00000
     26      10.0291      0.00000
     27      10.6127      0.00000
     28      10.8842      0.00000
     29      11.5538      0.00000

 k-point    97 :       0.5000    0.0000    0.0789
  band No.  band energies     occupation 
      1     -17.8598      2.00000
      2     -17.3879      2.00000
      3     -16.7927      2.00000
      4     -16.2591      2.00000
      5     -16.2238      2.00000
      6     -16.1894      2.00000
      7      -7.3105      2.00000
      8      -6.3017      2.00000
      9      -4.8678      2.00000
     10      -4.3678      2.00000
     11      -4.2840      2.00000
     12      -3.5609      2.00000
     13      -2.0171      2.00000
     14      -1.8652      2.00000
     15      -1.5768      2.00000
     16      -1.2411      2.00000
     17      -0.9587      2.00000
     18      -0.7027      2.00000
     19      -0.5516      2.00000
     20      -0.0644      2.00000
     21       0.0701      2.00000
     22       0.2880      2.00000
     23       0.7715      2.00000
     24       1.0140      2.00000
     25       9.2883      0.00000
     26      10.0226      0.00000
     27      10.6324      0.00000
     28      10.8424      0.00000
     29      11.5657      0.00000

 k-point    98 :       0.5000    0.0000    0.0526
  band No.  band energies     occupation 
      1     -17.8619      2.00000
      2     -17.3890      2.00000
      3     -16.7886      2.00000
      4     -16.2597      2.00000
      5     -16.2228      2.00000
      6     -16.1901      2.00000
      7      -7.3152      2.00000
      8      -6.3053      2.00000
      9      -4.8401      2.00000
     10      -4.3671      2.00000
     11      -4.3128      2.00000
     12      -3.5494      2.00000
     13      -2.0130      2.00000
     14      -1.8514      2.00000
     15      -1.5924      2.00000
     16      -1.2262      2.00000
     17      -0.9867      2.00000
     18      -0.6910      2.00000
     19      -0.5694      2.00000
     20      -0.0531      2.00000
     21       0.0544      2.00000
     22       0.2883      2.00000
     23       0.7812      2.00000
     24       1.0194      2.00000
     25       9.2722      0.00000
     26      10.0178      0.00000
     27      10.6559      0.00000
     28      10.8023      0.00000
     29      11.5737      0.00000

 k-point    99 :       0.5000    0.0000    0.0263
  band No.  band energies     occupation 
      1     -17.8631      2.00000
      2     -17.3896      2.00000
      3     -16.7861      2.00000
      4     -16.2601      2.00000
      5     -16.2221      2.00000
      6     -16.1905      2.00000
      7      -7.3180      2.00000
      8      -6.3075      2.00000
      9      -4.8217      2.00000
     10      -4.3644      2.00000
     11      -4.3339      2.00000
     12      -3.5424      2.00000
     13      -2.0105      2.00000
     14      -1.8421      2.00000
     15      -1.6029      2.00000
     16      -1.2139      2.00000
     17      -1.0068      2.00000
     18      -0.6822      2.00000
     19      -0.5819      2.00000
     20      -0.0433      2.00000
     21       0.0416      2.00000
     22       0.2888      2.00000
     23       0.7870      2.00000
     24       1.0228      2.00000
     25       9.2625      0.00000
     26      10.0150      0.00000
     27      10.6815      0.00000
     28      10.7664      0.00000
     29      11.5789      0.00000

 k-point   100 :       0.5000    0.0000    0.0000
  band No.  band energies     occupation 
      1     -17.8635      2.00000
      2     -17.3898      2.00000
      3     -16.7853      2.00000
      4     -16.2602      2.00000
      5     -16.2219      2.00000
      6     -16.1906      2.00000
      7      -7.3190      2.00000
      8      -6.3083      2.00000
      9      -4.8152      2.00000
     10      -4.3619      2.00000
     11      -4.3431      2.00000
     12      -3.5401      2.00000
     13      -2.0097      2.00000
     14      -1.8388      2.00000
     15      -1.6067      2.00000
     16      -1.2090      2.00000
     17      -1.0144      2.00000
     18      -0.6788      2.00000
     19      -0.5865      2.00000
     20      -0.0391      2.00000
     21       0.0364      2.00000
     22       0.2890      2.00000
     23       0.7889      2.00000
     24       1.0239      2.00000
     25       9.2592      0.00000
     26      10.0140      0.00000
     27      10.6979      0.00000
     28      10.7465      0.00000
     29      11.5823      0.00000


--------------------------------------------------------------------------------------------------------


 soft charge-density along one line, spin component           1
         0         1         2         3         4         5         6         7         8         9
 total charge-density along one line

 pseudopotential strength for first ion, spin component:           1
 18.764  26.181  -0.001  -0.000  -0.000  -0.001  -0.000  -0.001
 26.181  36.536  -0.001  -0.000  -0.001  -0.002  -0.000  -0.001
 -0.001  -0.001   4.218   0.000   0.000   7.863   0.000   0.000
 -0.000  -0.000   0.000   4.218  -0.000   0.000   7.863  -0.000
 -0.000  -0.001   0.000  -0.000   4.218   0.000  -0.000   7.863
 -0.001  -0.002   7.863   0.000   0.000  14.669   0.001   0.000
 -0.000  -0.000   0.000   7.863  -0.000   0.001  14.668  -0.001
 -0.001  -0.001   0.000  -0.000   7.863   0.000  -0.001  14.668
 total augmentation occupancy for first ion, spin component:           1
  2.000   0.000   0.000   0.000   0.000   0.000   0.000   0.000
  0.000   0.000   0.000   0.000   0.000   0.000   0.000   0.000
  0.000   0.000   0.667   0.000   0.000   0.000   0.000   0.000
  0.000   0.000   0.000   0.667   0.000   0.000   0.000   0.000
  0.000   0.000   0.000   0.000   0.667   0.000   0.000   0.000
  0.000   0.000   0.000   0.000   0.000   0.000   0.000   0.000
  0.000   0.000   0.000   0.000   0.000   0.000   0.000   0.000
  0.000   0.000   0.000   0.000   0.000   0.000   0.000   0.000


------------------------ aborting loop because EDIFF is reached ----------------------------------------


    CHARGE:  cpu time      5.9072: real time      2.9227
    FORLOC:  cpu time      0.0148: real time      0.0026
    FORNL :  cpu time      2.0161: real time      2.1394
    STRESS:  cpu time      8.5135: real time      3.5136
    FORCOR:  cpu time      0.1736: real time      0.0437
    FORHAR:  cpu time      0.0405: real time      0.0148
    OFIELD:  cpu time      0.0002: real time      0.0001

  FORCE on cell =-STRESS in cart. coord.  units (eV):
  Direction    XX          YY          ZZ          XY          YZ          ZX
  --------------------------------------------------------------------------------------
  Alpha Z    69.31647    69.31647    69.31647
  Ewald    -650.35106  -650.35106  -589.41750     0.00000     0.00000     0.00000
  Hartree   345.46053   345.46054   376.64073    -0.00000    -0.00001    -0.00000
  E(xc)    -225.37398  -225.37398  -225.34231    -0.00000    -0.00000     0.00000
  Local    -411.79956  -411.79932  -502.15446    -0.00000     0.00002     0.00000
  n-local   -51.73927   -51.86578   -50.80751    -0.08786     0.03930    -0.06187
  augment    27.20434    27.20411    27.02135    -0.00000     0.00001    -0.00000
  Kinetic   901.09309   901.73965   898.92462     0.43808    -0.04301     0.05236
  Fock        0.00000     0.00000     0.00000     0.00000     0.00000     0.00000
  -------------------------------------------------------------------------------------
  Total       4.07060     4.07060     4.18138     0.00000     0.00000     0.00000
  in kB      57.35701    57.35701    58.91794     0.00000     0.00000     0.00000
  external pressure =       57.88 kB  Pullay stress =        0.00 kB


 VOLUME and BASIS-vectors are now :
 -----------------------------------------------------------------------------
  energy-cutoff  :      520.00
  volume of cell :      113.71
      direct lattice vectors                 reciprocal lattice vectors
     2.458278904 -4.257863960  0.000000000     0.203394334 -0.117429773  0.000000000
     2.458278904  4.257863960  0.000000000     0.203394334  0.117429773 -0.000000000
     0.000000000  0.000000000  5.431625250    -0.000000000  0.000000000  0.184106958

  length of vectors
     4.916557807  4.916557807  5.431625250     0.234859547  0.234859547  0.184106958


 FORCES acting on ions
    electron-ion (+dipol)            ewald-force                    non-local-force                 convergence-correction
 -----------------------------------------------------------------------------------------------
   0.128E+01 0.222E+01 -.105E-04   -.114E+01 -.198E+01 -.526E-11   -.122E+00 -.212E+00 0.707E-17   -.136E-02 -.243E-02 0.436E-03
   -.257E+01 -.249E-07 0.222E-07   0.228E+01 0.488E-14 -.243E-12   0.245E+00 0.465E-17 0.353E-17   0.302E-02 -.701E-12 -.571E-12
   0.128E+01 -.222E+01 0.106E-04   -.114E+01 0.198E+01 0.107E-11   -.122E+00 0.212E+00 0.121E-16   -.136E-02 0.243E-02 -.436E-03
   0.282E+02 -.654E+02 -.321E+02   -.380E+02 0.811E+02 0.424E+02   0.969E+01 -.154E+02 -.102E+02   0.397E-01 -.360E-01 0.509E-02
   -.707E+02 0.831E+01 -.321E+02   0.892E+02 -.761E+01 0.424E+02   -.182E+02 -.672E+00 -.102E+02   -.495E-01 -.199E-01 0.626E-02
   0.425E+02 0.571E+02 -.321E+02   -.512E+02 -.734E+02 0.424E+02   0.852E+01 0.161E+02 -.102E+02   0.988E-02 0.493E-01 0.805E-02
   0.425E+02 -.571E+02 0.321E+02   -.512E+02 0.734E+02 -.424E+02   0.852E+01 -.161E+02 0.102E+02   0.988E-02 -.493E-01 -.805E-02
   -.707E+02 -.831E+01 0.321E+02   0.892E+02 0.761E+01 -.424E+02   -.182E+02 0.672E+00 0.102E+02   -.495E-01 0.199E-01 -.626E-02
   0.282E+02 0.654E+02 0.321E+02   -.380E+02 -.811E+02 -.424E+02   0.969E+01 0.154E+02 0.102E+02   0.397E-01 0.360E-01 -.509E-02
 -----------------------------------------------------------------------------------------------
   -.719E-05 0.989E-07 0.406E-07   -.284E-13 0.000E+00 -.711E-14   0.178E-14 0.178E-14 -.355E-14   0.618E-03 -.757E-11 -.376E-10


 POSITION                                       TOTAL-FORCE (eV/Angst)
 -----------------------------------------------------------------------------------
      1.15244      1.99608      1.81054         0.018918      0.032766     -0.000000
      2.61168      0.00000      0.00000        -0.037835      0.000000     -0.000000
      1.15244     -1.99608      3.62108         0.018918     -0.032766     -0.000000
      2.15340      2.49895      2.97555        -0.127393      0.214429      0.136315
      3.54573      1.14349      4.78609         0.249397      0.003111      0.136315
      1.67571      0.61542      1.16501        -0.122004     -0.217540      0.136315
      1.67571     -0.61542      4.26662        -0.122004      0.217540     -0.136315
      3.54573     -1.14349      0.64553         0.249397     -0.003111     -0.136315
      2.15340     -2.49895      2.45607        -0.127393     -0.214429     -0.136315
 -----------------------------------------------------------------------------------
    total drift:                                0.000611      0.000000      0.000000


--------------------------------------------------------------------------------------------------------



  FREE ENERGIE OF THE ION-ELECTRON SYSTEM (eV)
  ---------------------------------------------------
  free  energy   TOTEN  =       -71.05653440 eV

  energy  without entropy=      -71.05653440  energy(sigma->0) =      -71.05653440



--------------------------------------------------------------------------------------------------------


    POTLOK:  cpu time      0.1609: real time      0.0409


--------------------------------------------------------------------------------------------------------


 writing wavefunctions
     LOOP+:  cpu time    853.5903: real time    341.6934
    4ORBIT:  cpu time      0.0000: real time      0.0007

 total amount of memory used by VASP MPI-rank0   266372. kBytes
=======================================================================

   base      :      30000. kBytes
   nonl-proj :      39996. kBytes
   fftplans  :      17864. kBytes
   grid      :      31769. kBytes
   one-center:         27. kBytes
   wavefun   :     146716. kBytes

  
  
 General timing and accounting informations for this job:
 ========================================================
  
                  Total CPU time used (sec):      856.054
                            User time (sec):      386.764
                          System time (sec):      469.291
                         Elapsed time (sec):      344.498
  
                   Maximum memory used (kb):   361021440.
                   Average memory used (kb):          N/A
  
                          Minor page faults:        27046
                          Major page faults:           74
                 Voluntary context switches:           59
