nqpoint: 255    
npath: 5      
segment_nqpoint:
- 51
- 51
- 51
- 51
- 51
labels:
- [ '$Gamma$', 'A' ]
- [ 'A', 'H' ]
- [ 'H', 'K' ]
- [ 'K', 'L' ]
- [ 'L', 'M' ]
reciprocal_lattice:
- [   0.26245629,  -0.15152921,   0.00000000 ] # a*
- [   0.26245629,   0.15152921,   0.00000000 ] # b*
- [   0.00000000,   0.00000000,   0.16007358 ] # c*
natom: 4      
lattice:
- [     1.905079105686701,    -3.299693803487245,     0.000000000000000 ] # a
- [     1.905079105686701,     3.299693803487245,     0.000000000000000 ] # b
- [     0.000000000000000,     0.000000000000000,     6.247126961337911 ] # c
points:
- symbol: Zn # 1
  coordinates: [  0.333333333333336,  0.666666666666664,  0.000330906671147 ]
  mass: 65.380000
- symbol: Zn # 2
  coordinates: [  0.666666666666664,  0.333333333333336,  0.500330906671147 ]
  mass: 65.380000
- symbol: S # 3
  coordinates: [  0.333333333333336,  0.666666666666664,  0.374669093328853 ]
  mass: 32.065000
- symbol: S # 4
  coordinates: [  0.666666666666664,  0.333333333333336,  0.874669093328853 ]
  mass: 32.065000

phonon:
- q-position: [    0.0000000,    0.0000000,    0.0000000 ]
  distance:    0.0000000
  band:
  - # 1
    frequency:   -0.0000001780
  - # 2
    frequency:    0.0000001959
  - # 3
    frequency:    0.0000002626
  - # 4
    frequency:    2.0678849256
  - # 5
    frequency:    2.0678849256
  - # 6
    frequency:    5.7771751602
  - # 7
    frequency:    8.1813611259
  - # 8
    frequency:    8.3520849532
  - # 9
    frequency:    8.3520849532
  - # 10
    frequency:    8.5374151441
  - # 11
    frequency:    8.5374151441
  - # 12
    frequency:   10.0580168133

- q-position: [    0.0000000,    0.0000000,    0.0100000 ]
  distance:    0.0016007
  band:
  - # 1
    frequency:    0.0420428289
  - # 2
    frequency:    0.0420428289
  - # 3
    frequency:    0.1046608025
  - # 4
    frequency:    2.0678031422
  - # 5
    frequency:    2.0678031422
  - # 6
    frequency:    5.7762386661
  - # 7
    frequency:    8.1828449827
  - # 8
    frequency:    8.3521018217
  - # 9
    frequency:    8.3521018217
  - # 10
    frequency:    8.5373409439
  - # 11
    frequency:    8.5373409439
  - # 12
    frequency:   10.0586479739

- q-position: [    0.0000000,    0.0000000,    0.0200000 ]
  distance:    0.0032015
  band:
  - # 1
    frequency:    0.0840631829
  - # 2
    frequency:    0.0840631829
  - # 3
    frequency:    0.2092524948
  - # 4
    frequency:    2.0675573525
  - # 5
    frequency:    2.0675573525
  - # 6
    frequency:    5.7734331900
  - # 7
    frequency:    8.1872912288
  - # 8
    frequency:    8.3521524927
  - # 9
    frequency:    8.3521524927
  - # 10
    frequency:    8.5371184957
  - # 11
    frequency:    8.5371184957
  - # 12
    frequency:   10.0605355746

- q-position: [    0.0000000,    0.0000000,    0.0300000 ]
  distance:    0.0048022
  band:
  - # 1
    frequency:    0.1260386099
  - # 2
    frequency:    0.1260386099
  - # 3
    frequency:    0.3137061955
  - # 4
    frequency:    2.0671462405
  - # 5
    frequency:    2.0671462405
  - # 6
    frequency:    5.7687706750
  - # 7
    frequency:    8.1946839257
  - # 8
    frequency:    8.3522371627
  - # 9
    frequency:    8.3522371627
  - # 10
    frequency:    8.5367482551
  - # 11
    frequency:    8.5367482551
  - # 12
    frequency:   10.0636620505

- q-position: [    0.0000000,    0.0000000,    0.0400000 ]
  distance:    0.0064029
  band:
  - # 1
    frequency:    0.1679467034
  - # 2
    frequency:    0.1679467034
  - # 3
    frequency:    0.4179534786
  - # 4
    frequency:    2.0665676181
  - # 5
    frequency:    2.0665676181
  - # 6
    frequency:    5.7622707796
  - # 7
    frequency:    8.2049966289
  - # 8
    frequency:    8.3523561580
  - # 9
    frequency:    8.3523561580
  - # 10
    frequency:    8.5362309809
  - # 11
    frequency:    8.5362309809
  - # 12
    frequency:   10.0679983863

- q-position: [    0.0000000,    0.0000000,    0.0500000 ]
  distance:    0.0080037
  band:
  - # 1
    frequency:    0.2097651252
  - # 2
    frequency:    0.2097651252
  - # 3
    frequency:    0.5219265964
  - # 4
    frequency:    2.0658184335
  - # 5
    frequency:    2.0658184335
  - # 6
    frequency:    5.7539605164
  - # 7
    frequency:    8.2181925637
  - # 8
    frequency:    8.3525099333
  - # 9
    frequency:    8.3525099333
  - # 10
    frequency:    8.5355677321
  - # 11
    frequency:    8.5355677321
  - # 12
    frequency:   10.0735044969

- q-position: [    0.0000000,    0.0000000,    0.0600000 ]
  distance:    0.0096044
  band:
  - # 1
    frequency:    0.2514716287
  - # 2
    frequency:    0.2514716287
  - # 3
    frequency:    0.6255586952
  - # 4
    frequency:    2.0648947829
  - # 5
    frequency:    2.0648947829
  - # 6
    frequency:    5.7438737635
  - # 7
    frequency:    8.2342248692
  - # 8
    frequency:    8.3526990687
  - # 9
    frequency:    8.3526990687
  - # 10
    frequency:    8.5347598659
  - # 11
    frequency:    8.5347598659
  - # 12
    frequency:   10.0801297430

- q-position: [    0.0000000,    0.0000000,    0.0700000 ]
  distance:    0.0112052
  band:
  - # 1
    frequency:    0.2930440812
  - # 2
    frequency:    0.2930440812
  - # 3
    frequency:    0.7287840241
  - # 4
    frequency:    2.0637919254
  - # 5
    frequency:    2.0637919254
  - # 6
    frequency:    5.7320506639
  - # 7
    frequency:    8.2530369058
  - # 8
    frequency:    8.3529242677
  - # 9
    frequency:    8.3529242677
  - # 10
    frequency:    8.5338090337
  - # 11
    frequency:    8.5338090337
  - # 12
    frequency:   10.0878135664

- q-position: [    0.0000000,    0.0000000,    0.0800000 ]
  distance:    0.0128059
  band:
  - # 1
    frequency:    0.3344604874
  - # 2
    frequency:    0.3344604874
  - # 3
    frequency:    0.8315381333
  - # 4
    frequency:    2.0625043002
  - # 5
    frequency:    2.0625043002
  - # 6
    frequency:    5.7185369336
  - # 7
    frequency:    8.2745626221
  - # 8
    frequency:    8.3531863524
  - # 9
    frequency:    8.3531863524
  - # 10
    frequency:    8.5327171774
  - # 11
    frequency:    8.5327171774
  - # 12
    frequency:   10.0964862268

- q-position: [    0.0000000,    0.0000000,    0.0900000 ]
  distance:    0.0144066
  band:
  - # 1
    frequency:    0.3756990118
  - # 2
    frequency:    0.3756990118
  - # 3
    frequency:    0.9337580617
  - # 4
    frequency:    2.0610255481
  - # 5
    frequency:    2.0610255481
  - # 6
    frequency:    5.7033830962
  - # 7
    frequency:    8.2987269768
  - # 8
    frequency:    8.3534862600
  - # 9
    frequency:    8.3534862600
  - # 10
    frequency:    8.5314865235
  - # 11
    frequency:    8.5314865235
  - # 12
    frequency:   10.1060696187

- q-position: [    0.0000000,    0.0000000,    0.1000000 ]
  distance:    0.0160074
  band:
  - # 1
    frequency:    0.4167380023
  - # 2
    frequency:    0.4167380023
  - # 3
    frequency:    1.0353825116
  - # 4
    frequency:    2.0593485351
  - # 5
    frequency:    2.0593485351
  - # 6
    frequency:    5.6866436690
  - # 7
    frequency:    8.3254464091
  - # 8
    frequency:    8.3538250376
  - # 9
    frequency:    8.3538250376
  - # 10
    frequency:    8.5301195780
  - # 11
    frequency:    8.5301195780
  - # 12
    frequency:   10.1164781477

- q-position: [    0.0000000,    0.0000000,    0.1100000 ]
  distance:    0.0176081
  band:
  - # 1
    frequency:    0.4575560131
  - # 2
    frequency:    0.4575560131
  - # 3
    frequency:    1.1363520106
  - # 4
    frequency:    2.0574653788
  - # 5
    frequency:    2.0574653788
  - # 6
    frequency:    5.6683763185
  - # 7
    frequency:    8.3542038364
  - # 8
    frequency:    8.3542038364
  - # 9
    frequency:    8.3546293533
  - # 10
    frequency:    8.5286191195
  - # 11
    frequency:    8.5286191195
  - # 12
    frequency:   10.1276196461

- q-position: [    0.0000000,    0.0000000,    0.1200000 ]
  distance:    0.0192088
  band:
  - # 1
    frequency:    0.4981318275
  - # 2
    frequency:    0.4981318275
  - # 3
    frequency:    1.2366090586
  - # 4
    frequency:    2.0553674781
  - # 5
    frequency:    2.0553674781
  - # 6
    frequency:    5.6486410095
  - # 7
    frequency:    8.3546239059
  - # 8
    frequency:    8.3546239059
  - # 9
    frequency:    8.3861767892
  - # 10
    frequency:    8.5269881919
  - # 11
    frequency:    8.5269881919
  - # 12
    frequency:   10.1393963056

- q-position: [    0.0000000,    0.0000000,    0.1300000 ]
  distance:    0.0208096
  band:
  - # 1
    frequency:    0.5384444818
  - # 2
    frequency:    0.5384444818
  - # 3
    frequency:    1.3360982611
  - # 4
    frequency:    2.0530455443
  - # 5
    frequency:    2.0530455443
  - # 6
    frequency:    5.6274991632
  - # 7
    frequency:    8.3550865865
  - # 8
    frequency:    8.3550865865
  - # 9
    frequency:    8.4199828242
  - # 10
    frequency:    8.5252300965
  - # 11
    frequency:    8.5252300965
  - # 12
    frequency:   10.1517056107

- q-position: [    0.0000000,    0.0000000,    0.1400000 ]
  distance:    0.0224103
  band:
  - # 1
    frequency:    0.5784732878
  - # 2
    frequency:    0.5784732878
  - # 3
    frequency:    1.4347664467
  - # 4
    frequency:    2.0504896359
  - # 5
    frequency:    2.0504896359
  - # 6
    frequency:    5.6050128431
  - # 7
    frequency:    8.3555933026
  - # 8
    frequency:    8.3555933026
  - # 9
    frequency:    8.4559352980
  - # 10
    frequency:    8.5233483829
  - # 11
    frequency:    8.5233483829
  - # 12
    frequency:   10.1644412563

- q-position: [    0.0000000,    0.0000000,    0.1500000 ]
  distance:    0.0240110
  band:
  - # 1
    frequency:    0.6181978569
  - # 2
    frequency:    0.6181978569
  - # 3
    frequency:    1.5325627704
  - # 4
    frequency:    2.0476891946
  - # 5
    frequency:    2.0476891946
  - # 6
    frequency:    5.5812439819
  - # 7
    frequency:    8.3561455544
  - # 8
    frequency:    8.3561455544
  - # 9
    frequency:    8.4939164060
  - # 10
    frequency:    8.5213468399
  - # 11
    frequency:    8.5213468399
  - # 12
    frequency:   10.1774940349

- q-position: [    0.0000000,    0.0000000,    0.1600000 ]
  distance:    0.0256118
  band:
  - # 1
    frequency:    0.6575981226
  - # 2
    frequency:    0.6575981226
  - # 3
    frequency:    1.6294388022
  - # 4
    frequency:    2.0446330838
  - # 5
    frequency:    2.0446330838
  - # 6
    frequency:    5.5562536603
  - # 7
    frequency:    8.3567449094
  - # 8
    frequency:    8.3567449094
  - # 9
    frequency:    8.5192294848
  - # 10
    frequency:    8.5192294848
  - # 11
    frequency:    8.5338033335
  - # 12
    frequency:   10.1907526838

- q-position: [    0.0000000,    0.0000000,    0.1700000 ]
  distance:    0.0272125
  band:
  - # 1
    frequency:    0.6966543644
  - # 2
    frequency:    0.6966543644
  - # 3
    frequency:    1.7253486016
  - # 4
    frequency:    2.0413096286
  - # 5
    frequency:    2.0413096286
  - # 6
    frequency:    5.5301014470
  - # 7
    frequency:    8.3573929933
  - # 8
    frequency:    8.3573929933
  - # 9
    frequency:    8.5170005532
  - # 10
    frequency:    8.5170005532
  - # 11
    frequency:    8.5754688954
  - # 12
    frequency:   10.2041046833

- q-position: [    0.0000000,    0.0000000,    0.1800000 ]
  distance:    0.0288132
  band:
  - # 1
    frequency:    0.7353472310
  - # 2
    frequency:    0.7353472310
  - # 3
    frequency:    1.8202487783
  - # 4
    frequency:    2.0377066584
  - # 5
    frequency:    2.0377066584
  - # 6
    frequency:    5.5028448052
  - # 7
    frequency:    8.3580914803
  - # 8
    frequency:    8.3580914803
  - # 9
    frequency:    8.5146644868
  - # 10
    frequency:    8.5146644868
  - # 11
    frequency:    8.6187821751
  - # 12
    frequency:   10.2174370010

- q-position: [    0.0000000,    0.0000000,    0.1900000 ]
  distance:    0.0304140
  band:
  - # 1
    frequency:    0.7736577635
  - # 2
    frequency:    0.7736577635
  - # 3
    frequency:    1.9140985405
  - # 4
    frequency:    2.0338115493
  - # 5
    frequency:    2.0338115493
  - # 6
    frequency:    5.4745385698
  - # 7
    frequency:    8.3588420832
  - # 8
    frequency:    8.3588420832
  - # 9
    frequency:    8.5122259217
  - # 10
    frequency:    8.5122259217
  - # 11
    frequency:    8.6636091583
  - # 12
    frequency:   10.2306367772

- q-position: [    0.0000000,    0.0000000,    0.2000000 ]
  distance:    0.0320147
  band:
  - # 1
    frequency:    0.8115674188
  - # 2
    frequency:    0.8115674188
  - # 3
    frequency:    2.0068597315
  - # 4
    frequency:    2.0296112699
  - # 5
    frequency:    2.0296112699
  - # 6
    frequency:    5.4452344960
  - # 7
    frequency:    8.3596465431
  - # 8
    frequency:    8.3596465431
  - # 9
    frequency:    8.5096896755
  - # 10
    frequency:    8.5096896755
  - # 11
    frequency:    8.7098133570
  - # 12
    frequency:   10.2435919525

- q-position: [    0.0000000,    0.0000000,    0.2100000 ]
  distance:    0.0336155
  band:
  - # 1
    frequency:    0.8490580924
  - # 2
    frequency:    0.8490580924
  - # 3
    frequency:    2.0250924265
  - # 4
    frequency:    2.0250924265
  - # 5
    frequency:    2.0984968544
  - # 6
    frequency:    5.4149808800
  - # 7
    frequency:    8.3605066179
  - # 8
    frequency:    8.3605066179
  - # 9
    frequency:    8.5070607340
  - # 10
    frequency:    8.5070607340
  - # 11
    frequency:    8.7572564181
  - # 12
    frequency:   10.2561918351

- q-position: [    0.0000000,    0.0000000,    0.2200000 ]
  distance:    0.0352162
  band:
  - # 1
    frequency:    0.8861121422
  - # 2
    frequency:    0.8861121422
  - # 3
    frequency:    2.0202413102
  - # 4
    frequency:    2.0202413102
  - # 5
    frequency:    2.1889770882
  - # 6
    frequency:    5.3838222495
  - # 7
    frequency:    8.3614240717
  - # 8
    frequency:    8.3614240717
  - # 9
    frequency:    8.5043442374
  - # 10
    frequency:    8.5043442374
  - # 11
    frequency:    8.8057987150
  - # 12
    frequency:   10.2683276117

- q-position: [    0.0000000,    0.0000000,    0.2300000 ]
  distance:    0.0368169
  band:
  - # 1
    frequency:    0.9227124105
  - # 2
    frequency:    0.9227124105
  - # 3
    frequency:    2.0150439444
  - # 4
    frequency:    2.0150439444
  - # 5
    frequency:    2.2782702939
  - # 6
    frequency:    5.3517991212
  - # 7
    frequency:    8.3624006625
  - # 8
    frequency:    8.3624006625
  - # 9
    frequency:    8.5015454656
  - # 10
    frequency:    8.5015454656
  - # 11
    frequency:    8.8552999172
  - # 12
    frequency:   10.2798928031

- q-position: [    0.0000000,    0.0000000,    0.2400000 ]
  distance:    0.0384177
  band:
  - # 1
    frequency:    0.9588422473
  - # 2
    frequency:    0.9588422473
  - # 3
    frequency:    2.0094861333
  - # 4
    frequency:    2.0094861333
  - # 5
    frequency:    2.3663490129
  - # 6
    frequency:    5.3189478224
  - # 7
    frequency:    8.3634381308
  - # 8
    frequency:    8.3634381308
  - # 9
    frequency:    8.4986698239
  - # 10
    frequency:    8.4986698239
  - # 11
    frequency:    8.9056195370
  - # 12
    frequency:   10.2907836684

- q-position: [    0.0000000,    0.0000000,    0.2500000 ]
  distance:    0.0400184
  band:
  - # 1
    frequency:    0.9944855326
  - # 2
    frequency:    0.9944855326
  - # 3
    frequency:    2.0035535098
  - # 4
    frequency:    2.0035535098
  - # 5
    frequency:    2.4531884585
  - # 6
    frequency:    5.2853003708
  - # 7
    frequency:    8.3645381872
  - # 8
    frequency:    8.3645381872
  - # 9
    frequency:    8.4957228274
  - # 10
    frequency:    8.4957228274
  - # 11
    frequency:    8.9566174497
  - # 12
    frequency:   10.3008995619

- q-position: [    0.0000000,    0.0000000,    0.2600000 ]
  distance:    0.0416191
  band:
  - # 1
    frequency:    1.0296266985
  - # 2
    frequency:    1.0296266985
  - # 3
    frequency:    1.9972315853
  - # 4
    frequency:    1.9972315853
  - # 5
    frequency:    2.5387665011
  - # 6
    frequency:    5.2508844104
  - # 7
    frequency:    8.3657024999
  - # 8
    frequency:    8.3657024999
  - # 9
    frequency:    8.4927100853
  - # 10
    frequency:    8.4927100853
  - # 11
    frequency:    9.0081543872
  - # 12
    frequency:   10.3101432463

- q-position: [    0.0000000,    0.0000000,    0.2700000 ]
  distance:    0.0432199
  band:
  - # 1
    frequency:    1.0642507510
  - # 2
    frequency:    1.0642507510
  - # 3
    frequency:    1.9905057976
  - # 4
    frequency:    1.9905057976
  - # 5
    frequency:    2.6230636476
  - # 6
    frequency:    5.2157231959
  - # 7
    frequency:    8.3669326824
  - # 8
    frequency:    8.3669326824
  - # 9
    frequency:    8.4896372851
  - # 10
    frequency:    8.4896372851
  - # 11
    frequency:    9.0600924022
  - # 12
    frequency:   10.3184211665

- q-position: [    0.0000000,    0.0000000,    0.2800000 ]
  distance:    0.0448206
  band:
  - # 1
    frequency:    1.0983432914
  - # 2
    frequency:    1.0983432914
  - # 3
    frequency:    1.9833615604
  - # 4
    frequency:    1.9833615604
  - # 5
    frequency:    2.7060630164
  - # 6
    frequency:    5.1798356228
  - # 7
    frequency:    8.3682302808
  - # 8
    frequency:    8.3682302808
  - # 9
    frequency:    8.4865101767
  - # 10
    frequency:    8.4865101767
  - # 11
    frequency:    9.1122953049
  - # 12
    frequency:   10.3256436887

- q-position: [    0.0000000,    0.0000000,    0.2900000 ]
  distance:    0.0464213
  band:
  - # 1
    frequency:    1.1318905373
  - # 2
    frequency:    1.1318905373
  - # 3
    frequency:    1.9757843115
  - # 4
    frequency:    1.9757843115
  - # 5
    frequency:    2.7877503083
  - # 6
    frequency:    5.1432362976
  - # 7
    frequency:    8.3695967610
  - # 8
    frequency:    8.3695967610
  - # 9
    frequency:    8.4833345551
  - # 10
    frequency:    8.4833345551
  - # 11
    frequency:    9.1646290685
  - # 12
    frequency:   10.3317253074

- q-position: [    0.0000000,    0.0000000,    0.3000000 ]
  distance:    0.0480221
  band:
  - # 1
    frequency:    1.1648793427
  - # 2
    frequency:    1.1648793427
  - # 3
    frequency:    1.9677595609
  - # 4
    frequency:    1.9677595609
  - # 5
    frequency:    2.8681137733
  - # 6
    frequency:    5.1059356429
  - # 7
    frequency:    8.3710334962
  - # 8
    frequency:    8.3710334962
  - # 9
    frequency:    8.4801162447
  - # 10
    frequency:    8.4801162447
  - # 11
    frequency:    9.2169622070
  - # 12
    frequency:   10.3365848260

- q-position: [    0.0000000,    0.0000000,    0.3100000 ]
  distance:    0.0496228
  band:
  - # 1
    frequency:    1.1972972180
  - # 2
    frequency:    1.1972972180
  - # 3
    frequency:    1.9592729383
  - # 4
    frequency:    1.9592729383
  - # 5
    frequency:    2.9471441735
  - # 6
    frequency:    5.0679400340
  - # 7
    frequency:    8.3725417542
  - # 8
    frequency:    8.3725417542
  - # 9
    frequency:    8.4768610820
  - # 10
    frequency:    8.4768610820
  - # 11
    frequency:    9.2691661231
  - # 12
    frequency:   10.3401455126

- q-position: [    0.0000000,    0.0000000,    0.3200000 ]
  distance:    0.0512235
  band:
  - # 1
    frequency:    1.2291323492
  - # 2
    frequency:    1.2291323492
  - # 3
    frequency:    1.9503102401
  - # 4
    frequency:    1.9503102401
  - # 5
    frequency:    3.0248347443
  - # 6
    frequency:    5.0292519618
  - # 7
    frequency:    8.3741226850
  - # 8
    frequency:    8.3741226850
  - # 9
    frequency:    8.4735748992
  - # 10
    frequency:    8.4735748992
  - # 11
    frequency:    9.3211154283
  - # 12
    frequency:   10.3423352357

- q-position: [    0.0000000,    0.0000000,    0.3300000 ]
  distance:    0.0528243
  band:
  - # 1
    frequency:    1.2603736157
  - # 2
    frequency:    1.2603736157
  - # 3
    frequency:    1.9408574751
  - # 4
    frequency:    1.9408574751
  - # 5
    frequency:    3.1011811503
  - # 6
    frequency:    4.9898702187
  - # 7
    frequency:    8.3757773087
  - # 8
    frequency:    8.3757773087
  - # 9
    frequency:    8.4702635075
  - # 10
    frequency:    8.4702635075
  - # 11
    frequency:    9.3726882352
  - # 12
    frequency:   10.3430865819

- q-position: [    0.0000000,    0.0000000,    0.3400000 ]
  distance:    0.0544250
  band:
  - # 1
    frequency:    1.2910106082
  - # 2
    frequency:    1.2910106082
  - # 3
    frequency:    1.9309009095
  - # 4
    frequency:    1.9309009095
  - # 5
    frequency:    3.1761814400
  - # 6
    frequency:    4.9497901024
  - # 7
    frequency:    8.3775065033
  - # 8
    frequency:    8.3775065033
  - # 9
    frequency:    8.4669326802
  - # 10
    frequency:    8.4669326802
  - # 11
    frequency:    9.4237664239
  - # 12
    frequency:   10.3423369574

- q-position: [    0.0000000,    0.0000000,    0.3500000 ]
  distance:    0.0560258
  band:
  - # 1
    frequency:    1.3210336451
  - # 2
    frequency:    1.3210336451
  - # 3
    frequency:    1.9204271108
  - # 4
    frequency:    1.9204271108
  - # 5
    frequency:    3.2498359960
  - # 6
    frequency:    4.9090036364
  - # 7
    frequency:    8.3793109933
  - # 8
    frequency:    8.3793109933
  - # 9
    frequency:    8.4635881367
  - # 10
    frequency:    8.4635881367
  - # 11
    frequency:    9.4742358825
  - # 12
    frequency:   10.3400286781

- q-position: [    0.0000000,    0.0000000,    0.3600000 ]
  distance:    0.0576265
  band:
  - # 1
    frequency:    1.3504337879
  - # 2
    frequency:    1.3504337879
  - # 3
    frequency:    1.9094229905
  - # 4
    frequency:    1.9094229905
  - # 5
    frequency:    3.3221474823
  - # 6
    frequency:    4.8674998017
  - # 7
    frequency:    8.3811913385
  - # 8
    frequency:    8.3811913385
  - # 9
    frequency:    8.4602355262
  - # 10
    frequency:    8.4602355262
  - # 11
    frequency:    9.5239867237
  - # 12
    frequency:   10.3361090467

- q-position: [    0.0000000,    0.0000000,    0.3700000 ]
  distance:    0.0592272
  band:
  - # 1
    frequency:    1.3792028558
  - # 2
    frequency:    1.3792028558
  - # 3
    frequency:    1.8978758453
  - # 4
    frequency:    1.8978758453
  - # 5
    frequency:    3.3931207873
  - # 6
    frequency:    4.8252647780
  - # 7
    frequency:    8.3831479229
  - # 8
    frequency:    8.3831479229
  - # 9
    frequency:    8.4568804118
  - # 10
    frequency:    8.4568804118
  - # 11
    frequency:    9.5729134790
  - # 12
    frequency:   10.3305304222

- q-position: [    0.0000000,    0.0000000,    0.3800000 ]
  distance:    0.0608280
  band:
  - # 1
    frequency:    1.4073334390
  - # 2
    frequency:    1.4073334390
  - # 3
    frequency:    1.8857733968
  - # 4
    frequency:    1.8857733968
  - # 5
    frequency:    3.4627629633
  - # 6
    frequency:    4.7822821913
  - # 7
    frequency:    8.3851809449
  - # 8
    frequency:    8.3851809449
  - # 9
    frequency:    8.4535282550
  - # 10
    frequency:    8.4535282550
  - # 11
    frequency:    9.6209152713
  - # 12
    frequency:   10.3232502799

- q-position: [    0.0000000,    0.0000000,    0.3900000 ]
  distance:    0.0624287
  band:
  - # 1
    frequency:    1.4348189104
  - # 2
    frequency:    1.4348189104
  - # 3
    frequency:    1.8731038299
  - # 4
    frequency:    1.8731038299
  - # 5
    frequency:    3.5310831611
  - # 6
    frequency:    4.7385333663
  - # 7
    frequency:    8.3872904077
  - # 8
    frequency:    8.3872904077
  - # 9
    frequency:    8.4501844009
  - # 10
    frequency:    8.4501844009
  - # 11
    frequency:    9.6678959675
  - # 12
    frequency:   10.3142312654

- q-position: [    0.0000000,    0.0000000,    0.4000000 ]
  distance:    0.0640294
  band:
  - # 1
    frequency:    1.4616534367
  - # 2
    frequency:    1.4616534367
  - # 3
    frequency:    1.8598558294
  - # 4
    frequency:    1.8598558294
  - # 5
    frequency:    3.5980925598
  - # 6
    frequency:    4.6939975792
  - # 7
    frequency:    8.3894761100
  - # 8
    frequency:    8.3894761100
  - # 9
    frequency:    8.4468540636
  - # 10
    frequency:    8.4468540636
  - # 11
    frequency:    9.7137643128
  - # 12
    frequency:   10.3034412427

- q-position: [    0.0000000,    0.0000000,    0.4100000 ]
  distance:    0.0656302
  band:
  - # 1
    frequency:    1.4878319871
  - # 2
    frequency:    1.4878319871
  - # 3
    frequency:    1.8460186152
  - # 4
    frequency:    1.8460186152
  - # 5
    frequency:    3.6638042908
  - # 6
    frequency:    4.6486523124
  - # 7
    frequency:    8.3917376380
  - # 8
    frequency:    8.3917376380
  - # 9
    frequency:    8.4435423125
  - # 10
    frequency:    8.4435423125
  - # 11
    frequency:    9.7584340473
  - # 12
    frequency:   10.2908533371

- q-position: [    0.0000000,    0.0000000,    0.4200000 ]
  distance:    0.0672309
  band:
  - # 1
    frequency:    1.5133503416
  - # 2
    frequency:    1.5133503416
  - # 3
    frequency:    1.8315819750
  - # 4
    frequency:    1.8315819750
  - # 5
    frequency:    3.7282333562
  - # 6
    frequency:    4.6024735052
  - # 7
    frequency:    8.3940743583
  - # 8
    frequency:    8.3940743583
  - # 9
    frequency:    8.4402540589
  - # 10
    frequency:    8.4402540589
  - # 11
    frequency:    9.8018240073
  - # 12
    frequency:   10.2764459741

- q-position: [    0.0000000,    0.0000000,    0.4300000 ]
  distance:    0.0688316
  band:
  - # 1
    frequency:    1.5382050968
  - # 2
    frequency:    1.5382050968
  - # 3
    frequency:    1.8165362960
  - # 4
    frequency:    1.8165362960
  - # 5
    frequency:    3.7913965405
  - # 6
    frequency:    4.5554358030
  - # 7
    frequency:    8.3964854107
  - # 8
    frequency:    8.3964854107
  - # 9
    frequency:    8.4369940437
  - # 10
    frequency:    8.4369940437
  - # 11
    frequency:    9.8438582117
  - # 12
    frequency:   10.2602029140

- q-position: [    0.0000000,    0.0000000,    0.4400000 ]
  distance:    0.0704324
  band:
  - # 1
    frequency:    1.5623936704
  - # 2
    frequency:    1.5623936704
  - # 3
    frequency:    1.8008725939
  - # 4
    frequency:    1.8008725939
  - # 5
    frequency:    3.8533123156
  - # 6
    frequency:    4.5075128005
  - # 7
    frequency:    8.3989697029
  - # 8
    frequency:    8.3989697029
  - # 9
    frequency:    8.4337668259
  - # 10
    frequency:    8.4337668259
  - # 11
    frequency:    9.8844659353
  - # 12
    frequency:   10.2421132829

- q-position: [    0.0000000,    0.0000000,    0.4500000 ]
  distance:    0.0720331
  band:
  - # 1
    frequency:    1.5859143042
  - # 2
    frequency:    1.5859143042
  - # 3
    frequency:    1.7845825408
  - # 4
    frequency:    1.7845825408
  - # 5
    frequency:    3.9140007375
  - # 6
    frequency:    4.4586772794
  - # 7
    frequency:    8.4015259058
  - # 8
    frequency:    8.4015259058
  - # 9
    frequency:    8.4305767713
  - # 10
    frequency:    8.4305767713
  - # 11
    frequency:    9.9235817699
  - # 12
    frequency:   10.2221716009

- q-position: [    0.0000000,    0.0000000,    0.4600000 ]
  distance:    0.0736338
  band:
  - # 1
    frequency:    1.6087660650
  - # 2
    frequency:    1.6087660650
  - # 3
    frequency:    1.7676584901
  - # 4
    frequency:    1.7676584901
  - # 5
    frequency:    3.9734833360
  - # 6
    frequency:    4.4089014391
  - # 7
    frequency:    8.4041524495
  - # 8
    frequency:    8.4041524495
  - # 9
    frequency:    8.4274280432
  - # 10
    frequency:    8.4274280432
  - # 11
    frequency:    9.9611456743
  - # 12
    frequency:   10.2003778065

- q-position: [    0.0000000,    0.0000000,    0.4700000 ]
  distance:    0.0752346
  band:
  - # 1
    frequency:    1.6309488435
  - # 2
    frequency:    1.6309488435
  - # 3
    frequency:    1.7500935001
  - # 4
    frequency:    1.7500935001
  - # 5
    frequency:    4.0317829950
  - # 6
    frequency:    4.3581571198
  - # 7
    frequency:    8.4068475205
  - # 8
    frequency:    8.4068475205
  - # 9
    frequency:    8.4243245927
  - # 10
    frequency:    8.4243245927
  - # 11
    frequency:    9.9971030145
  - # 12
    frequency:   10.1767372781

- q-position: [    0.0000000,    0.0000000,    0.4800000 ]
  distance:    0.0768353
  band:
  - # 1
    frequency:    1.6524633520
  - # 2
    frequency:    1.6524633520
  - # 3
    frequency:    1.7318813554
  - # 4
    frequency:    1.7318813554
  - # 5
    frequency:    4.0889238249
  - # 6
    frequency:    4.3064160164
  - # 7
    frequency:    8.4096090605
  - # 8
    frequency:    8.4096090605
  - # 9
    frequency:    8.4212701516
  - # 10
    frequency:    8.4212701516
  - # 11
    frequency:   10.0314045951
  - # 12
    frequency:   10.1512608515

- q-position: [    0.0000000,    0.0000000,    0.4900000 ]
  distance:    0.0784361
  band:
  - # 1
    frequency:    1.6733111193
  - # 2
    frequency:    1.6733111193
  - # 3
    frequency:    1.7130165859
  - # 4
    frequency:    1.7130165859
  - # 5
    frequency:    4.1449310247
  - # 6
    frequency:    4.2536498844
  - # 7
    frequency:    8.4124347650
  - # 8
    frequency:    8.4124347650
  - # 9
    frequency:    8.4182682247
  - # 10
    frequency:    8.4182682247
  - # 11
    frequency:   10.0640066820
  - # 12
    frequency:   10.1239648348

- q-position: [    0.0000000,    0.0000000,    0.5000000 ]
  distance:    0.0800368
  band:
  - # 1
    frequency:    1.6934944839
  - # 2
    frequency:    1.6934944839
  - # 3
    frequency:    1.6934944839
  - # 4
    frequency:    1.6934944839
  - # 5
    frequency:    4.1998307357
  - # 6
    frequency:    4.1998307357
  - # 7
    frequency:    8.4153220842
  - # 8
    frequency:    8.4153220842
  - # 9
    frequency:    8.4153220842
  - # 10
    frequency:    8.4153220842
  - # 11
    frequency:   10.0948710184
  - # 12
    frequency:   10.0948710184

- q-position: [    0.0000000,    0.0000000,    0.5000000 ]
  distance:    0.0800368
  band:
  - # 1
    frequency:    1.6934944839
  - # 2
    frequency:    1.6934944839