72   
4    

1    
  0.0033749968256213  -0.0058456659773597   0.0073781830899067
  -0.0232236600    0.0410712500   -0.0510997600
   0.0014042600   -0.0028257400   -0.0007230800
   0.0001181600   -0.0058253200   -0.0025278000
  -0.0007936200   -0.0017553600   -0.0008784700
  -0.0000495800    0.0028148000   -0.0023550300
   0.0004490300   -0.0007750200   -0.0006216500
  -0.0020722700   -0.0013526800    0.0000185500
   0.0004490500   -0.0007746200   -0.0006215300
   0.0041788300    0.0041185500   -0.0032605200
   0.0000732500   -0.0001182000    0.0022907300
   0.0003608400   -0.0001820300    0.0003160000
   0.0001604500    0.0006771300    0.0010937500
  -0.0001776300    0.0005050000    0.0006207400
   0.0004895300   -0.0002876600    0.0007896300
   0.0000444800   -0.0000801600    0.0005537300
  -0.0003764000   -0.0000923700    0.0002338400
   0.0000458100   -0.0000839200    0.0005482900
  -0.0005775800   -0.0004167600    0.0011774600
   0.0000855900   -0.0046310300    0.0030998300
  -0.0000781500   -0.0008634500    0.0005241200
  -0.0055730700    0.0031150500    0.0006636200
   0.0048539700    0.0026051700    0.0018828200
   0.0006051400    0.0000500700    0.0005028800
  -0.0003429600    0.0001502400    0.0003114300
   0.0004331800   -0.0006616000    0.0005405600
   0.0003549200    0.0002912400    0.0005196700
  -0.0006267700    0.0004374200    0.0004159000
   0.0000873900    0.0023937300   -0.0024960400
   0.0003701300   -0.0006048300    0.0005255300
   0.0005000800   -0.0003923500    0.0062305200
  -0.0012198500   -0.0009116800    0.0018729700
   0.0002229900    0.0002733300    0.0001479100
  -0.0003461400   -0.0002887900    0.0006614600
  -0.0000113700   -0.0003990100    0.0001329100
   0.0003550800   -0.0002275200    0.0009194200
  -0.0002428000    0.0006580400    0.0004053800
   0.0012157600   -0.0021642100    0.0324708000
  -0.0005703200    0.0011382000   -0.0003276300
   0.0005220500   -0.0000685900    0.0009190100
  -0.0003607700   -0.0004773200    0.0002695200
  -0.0008774700   -0.0004250000    0.0002658500
  -0.0000365900    0.0000996700    0.0000237800
   0.0006429700    0.0009103600   -0.0003229800
  -0.0001478400    0.0002151700    0.0001002600
   0.0004478300   -0.0005917700    0.0009548400
   0.0003652500   -0.0006616700   -0.0015916000
  -0.0005436700    0.0002078600    0.0002019100
  -0.0000532300    0.0005028800   -0.0015005300
   0.0002705100   -0.0000242800   -0.0004152400
  -0.0000383500   -0.0000748500   -0.0007916800
  -0.0000247900    0.0000365400   -0.0004735400
   0.0006539300    0.0000402900    0.0004498000
  -0.0001561800    0.0002402200   -0.0005226200
  -0.0003977800   -0.0003434500   -0.0016508700
  -0.0000083300    0.0004551900   -0.0014688200
  -0.0001191600    0.0002004400   -0.0003902800
   0.0010949300   -0.0005610900   -0.0020820700
  -0.0007938900   -0.0003637000   -0.0017411200
  -0.0002265600   -0.0000933300   -0.0003822300
   0.0001184100   -0.0000661200   -0.0003536900
   0.0000083900    0.0001251700   -0.0003787800
  -0.0001048500    0.0001264300   -0.0005010200
   0.0002285300   -0.0002127800   -0.0004026900
   0.0008977500   -0.0129346700   -0.0020510400
  -0.0007266300    0.0017892500    0.0000932800
   0.0270891600   -0.0167365400    0.0129457500
  -0.0075614800   -0.0065338000    0.0056354600
  -0.0004030200   -0.0001645400    0.0001814600
   0.0003718500    0.0010982000    0.0001267800
   0.0002990900    0.0009157100   -0.0000751100
  -0.0009993400   -0.0003514500    0.0002251200
  -0.0000064800   -0.0008633000    0.0001441500

1    
 -0.0033749968256213   0.0058456659773597  -0.0073781830899067
   0.0246627500   -0.0418062000    0.0505720800
  -0.0014030300    0.0028052100    0.0010472700
  -0.0001344100    0.0058337800    0.0028512700
   0.0008005700    0.0017489000    0.0012084600
   0.0000571400   -0.0028187400    0.0026868400
  -0.0004419800    0.0007798000    0.0009552900
   0.0020697800    0.0013528300    0.0003048400
  -0.0004476500    0.0007740900    0.0009561500
  -0.0041854800   -0.0041327000    0.0035904400
  -0.0000660600    0.0001203400   -0.0019663900
  -0.0003589100    0.0001792500    0.0000191400
  -0.0001597200   -0.0006778400   -0.0007539300
   0.0001786000   -0.0005127900   -0.0002818300
  -0.0004914100    0.0002894200   -0.0004484300
  -0.0000454400    0.0000780100   -0.0002170600
   0.0003774900    0.0000896000    0.0001017700
  -0.0000466400    0.0000787300   -0.0002225300
   0.0005753100    0.0004175900   -0.0008319500
  -0.0000877400    0.0046401500   -0.0027273200
   0.0000759800    0.0008618200   -0.0001883100
   0.0055672500   -0.0031105400   -0.0003236000
  -0.0048596800   -0.0026019000   -0.0015281700
  -0.0006051200   -0.0000500700   -0.0001657800
   0.0003451400   -0.0001499100    0.0000177000
  -0.0004331200    0.0006585900   -0.0001988800
  -0.0003554900   -0.0002867100   -0.0001708300
   0.0006260800   -0.0004363000   -0.0000672700
  -0.0000880900   -0.0024001400    0.0028247800
  -0.0003666500    0.0006074400   -0.0001936400
  -0.0005423600    0.0004111400   -0.0059111500
   0.0012458500    0.0009175600   -0.0015357800
  -0.0002204700   -0.0002689200    0.0001806600
   0.0003469200    0.0002950200   -0.0003381300
   0.0000076100    0.0004068900    0.0002015500
  -0.0003522100    0.0002199500   -0.0005849400
   0.0002437100   -0.0006543100   -0.0000666000
  -0.0013090600    0.0022861200   -0.0315468600
   0.0005632000   -0.0010998800    0.0000081900
  -0.0005197800    0.0000603700   -0.0012718300
   0.0003844400    0.0005201400   -0.0006379200
   0.0009244700    0.0004234000   -0.0006288900
   0.0000454800   -0.0000638900   -0.0003784200
  -0.0006441000   -0.0008936200    0.0000101800
   0.0001260900   -0.0002243700   -0.0004011500
  -0.0004559600    0.0005998400   -0.0012667700
  -0.0003736200    0.0006496000    0.0012397800
   0.0005113800   -0.0001798400   -0.0005628100
   0.0000594700   -0.0005044800    0.0011355100
  -0.0002445600    0.0000466100    0.0001003900
   0.0000455600    0.0000980900    0.0004864600
   0.0000104300   -0.0000397000    0.0001002800
  -0.0006046300   -0.0000545700   -0.0007512500
   0.0001261000   -0.0002273900    0.0001686900
   0.0004001500    0.0003892500    0.0013361800
   0.0000404500   -0.0004557200    0.0011262500
   0.0001160100   -0.0002103900    0.0000865000
  -0.0010576700    0.0005701100    0.0017384300
   0.0007539200    0.0003424000    0.0014346800
   0.0002299100    0.0000275200    0.0000399600
  -0.0001484500    0.0000775300    0.0000409400
   0.0000234600   -0.0001569400    0.0000252500
   0.0001132100   -0.0000870500    0.0001256800
  -0.0002621300    0.0001742400    0.0000328500
  -0.0009317800    0.0129502300    0.0015907700
   0.0007559300   -0.0018027800   -0.0004178700
  -0.0284125600    0.0174061600   -0.0136745100
   0.0075675000    0.0064531200   -0.0058720800
   0.0004321600    0.0001686400   -0.0004881000
  -0.0003615400   -0.0011070400   -0.0004261900
  -0.0003385100   -0.0009358700   -0.0002833600
   0.0009631000    0.0003121900   -0.0005662800
  -0.0000165900    0.0008289300   -0.0004483900

37   
  0.0033749968256213  -0.0058456659773597   0.0073781830899067
   0.0013250800   -0.0023067300    0.0315611200
   0.0003624200   -0.0000494000    0.0013559500
  -0.0001522900    0.0012620200   -0.0000627800
   0.0002244800    0.0007669600    0.0000925000
   0.0006169700   -0.0006009400    0.0011928900
  -0.0001276600    0.0002336100    0.0004176100
  -0.0002326900   -0.0002186000    0.0008001800
  -0.0000465000    0.0000752600    0.0003927300
  -0.0010907600   -0.0007104200    0.0004843000
   0.0003755300   -0.0006429900   -0.0012293900
  -0.0015236800    0.0007126900   -0.0003027400
  -0.0002820500   -0.0007132600   -0.0002506400
   0.0003817500   -0.0013199400   -0.0002071100
  -0.0009125500    0.0005770800   -0.0003391900
  -0.0001380800    0.0002333900   -0.0001557500
   0.0017142900    0.0006255300   -0.0002322900
  -0.0000219500    0.0000373900   -0.0000974600
   0.0004568800    0.0003964500   -0.0003141300
   0.0008673400   -0.0330394700    0.0138879800
  -0.0011220300    0.0015934500    0.0004344100
   0.0109487100   -0.0074242600   -0.0017833500
   0.0091739200    0.0031894900    0.0059029900
  -0.0008224000    0.0000580800    0.0001553100
   0.0003557600    0.0006583400    0.0007925400
   0.0007058200    0.0007147600    0.0006371800
  -0.0009702500    0.0001107800    0.0002476900
   0.0003954900   -0.0006010300    0.0004786500
  -0.0000450200    0.0000103100   -0.0007541300
  -0.0000619700    0.0002399600   -0.0000611100
   0.0006716900   -0.0003440100   -0.0020619700
  -0.0003703000   -0.0001222500   -0.0014093000
  -0.0001116300   -0.0000927700    0.0000759700
   0.0001424500    0.0000574200   -0.0001325200
  -0.0000801100    0.0001887600   -0.0000630500
  -0.0001191300    0.0000241100   -0.0000596100
   0.0001429900   -0.0002461000   -0.0000175800
  -0.0320822500    0.0565279700   -0.0718174300
   0.0022328300   -0.0055349000   -0.0003437300
   0.0035645900   -0.0056845600   -0.0011154000
  -0.0020962900   -0.0034502700   -0.0006753900
   0.0032185400    0.0007068500   -0.0007824400
   0.0001324600   -0.0002036200   -0.0003378900
  -0.0007544500   -0.0021798600   -0.0002765600
   0.0001113500   -0.0002185500   -0.0003162200
   0.0030965000    0.0001579300   -0.0011430600
  -0.0001206300    0.0002010000    0.0005988300
   0.0002406900   -0.0001384100    0.0006195100
   0.0000018800   -0.0001853900    0.0006755300
  -0.0000672300    0.0000859500    0.0006535200
   0.0000487500    0.0000515400    0.0006754800
   0.0000191200   -0.0000575700   -0.0000093400
  -0.0002882600   -0.0001010600    0.0006265700
   0.0000382800   -0.0000549000    0.0000166400
   0.0001628200    0.0001881500    0.0006993700
  -0.0003396600   -0.0046045700    0.0057616000
   0.0002867400   -0.0002506300   -0.0001715000
  -0.0013391700    0.0011890400    0.0025200600
   0.0023891700    0.0021889600    0.0041366300
   0.0003765000   -0.0001517700    0.0000283300
  -0.0000908200    0.0000718800   -0.0002553900
  -0.0002043700   -0.0000937600   -0.0002573300
   0.0001781300   -0.0000917400   -0.0001456800
  -0.0002897000    0.0000038700   -0.0001347000
  -0.0003354100    0.0005926700    0.0016018100
   0.0001226900   -0.0003476200   -0.0001905400
   0.0030881100   -0.0013833300    0.0065721000
  -0.0020508600   -0.0004103300    0.0041137500
   0.0000202200    0.0000835800   -0.0002952700
  -0.0000820700   -0.0003452600    0.0000745200
  -0.0000488200   -0.0001906800   -0.0000955400
   0.0001617800    0.0000795300   -0.0002811600
   0.0000683100    0.0002161500   -0.0001055900

37   
 -0.0033749968256213   0.0058456659773597  -0.0073781830899067
  -0.0012393600    0.0021253700   -0.0324524800
  -0.0003637100    0.0000426100   -0.0010083000
   0.0001497600   -0.0012729800    0.0004023500
  -0.0002241000   -0.0007700800    0.0002421400
  -0.0006100100    0.0006054200   -0.0008559600
   0.0001398100   -0.0002313500   -0.0000802600
   0.0002203200    0.0002218500   -0.0004688800
   0.0000461500   -0.0000818800   -0.0000551600
   0.0010921600    0.0007080100   -0.0001491100
  -0.0003608100    0.0006419600    0.0015628700
   0.0015185000   -0.0007125400    0.0006325500
   0.0002816600    0.0007182400    0.0005853900
  -0.0003806200    0.0013050200    0.0005430400
   0.0009068900   -0.0005732200    0.0006750500
   0.0001336300   -0.0002355100    0.0004878200
  -0.0017039400   -0.0006279800    0.0005734700
   0.0000217900   -0.0000408300    0.0004163000
  -0.0004652600   -0.0003966200    0.0006531800
  -0.0009666400    0.0315550100   -0.0132055700
   0.0011326400   -0.0015899500   -0.0001062400
  -0.0110010000    0.0073688300    0.0022190800
  -0.0091891900   -0.0031674800   -0.0056338700
   0.0008207600   -0.0000563200    0.0001817200
  -0.0003653600   -0.0006553000   -0.0004636300
  -0.0006992600   -0.0007205200   -0.0002908100
   0.0009708700   -0.0001106100    0.0000949900
  -0.0004013500    0.0006086400   -0.0001340400
   0.0000337000   -0.0000145800    0.0010846200
   0.0000658200   -0.0002411100    0.0003962700
  -0.0006871700    0.0003483700    0.0024073000
   0.0003796600    0.0001250800    0.0017424800
   0.0001194600    0.0001012100    0.0002503100
  -0.0001434100   -0.0000531600    0.0004576300
   0.0000757200   -0.0001773500    0.0003973700
   0.0001229200   -0.0000324400    0.0004015100
  -0.0001385900    0.0002500400    0.0003622900
   0.0321634200   -0.0547878600    0.0723267200
  -0.0021888300    0.0055059700   -0.0000178500
  -0.0035790600    0.0057462600    0.0007589700
   0.0021189100    0.0034677400    0.0003290900
  -0.0031666900   -0.0007038800    0.0004095500
  -0.0001215500    0.0002380100   -0.0000120300
   0.0007379400    0.0021832500   -0.0000524000
  -0.0001420900    0.0002160200    0.0000103700
  -0.0031321900   -0.0001701300    0.0008322500
   0.0001123800   -0.0001967800   -0.0009611500
  -0.0002428100    0.0001471100   -0.0009731000
  -0.0000005500    0.0002022600   -0.0010397600
   0.0000817600   -0.0000523500   -0.0009705500
  -0.0000226700   -0.0000357000   -0.0009807200
  -0.0000439200    0.0000501800   -0.0003604600
   0.0003152200    0.0000765700   -0.0009284500
  -0.0000543100    0.0000576900   -0.0003489500
  -0.0001830900   -0.0001350800   -0.0010191600
   0.0003673400    0.0045518400   -0.0059842400
  -0.0002740500    0.0002380600   -0.0001312300
   0.0013772800   -0.0011732000   -0.0028622100
  -0.0024156700   -0.0021833700   -0.0044263000
  -0.0003662600    0.0000930800   -0.0003673100
   0.0000570800   -0.0000622800   -0.0000531900
   0.0002233100    0.0000572200   -0.0001137400
  -0.0001736400    0.0001118100   -0.0002275800
   0.0002438600   -0.0000351000   -0.0002395100
   0.0003464100   -0.0006187300   -0.0019468800
  -0.0000986500    0.0003426000   -0.0001404100
  -0.0031529800    0.0014297000   -0.0069964900
   0.0021100200    0.0004044700   -0.0044531900
  -0.0000106900   -0.0000830600   -0.0000182900
   0.0000789800    0.0003395700   -0.0003860200
   0.0000272100    0.0001791800   -0.0002507600
  -0.0001980600   -0.0001098700   -0.0000759900
  -0.0000857800   -0.0002550100   -0.0001944400
