mesh: [    16,    16,    16 ]
nqpoint: 576    
reciprocal_lattice:
- [   0.26245629,  -0.15152921,   0.00000000 ] # a*
- [   0.26245629,   0.15152921,   0.00000000 ] # b*
- [   0.00000000,   0.00000000,   0.16007358 ] # c*
natom:   4      
lattice:
- [     1.905079105686701,    -3.299693803487245,     0.000000000000000 ] # a
- [     1.905079105686701,     3.299693803487245,     0.000000000000000 ] # b
- [     0.000000000000000,     0.000000000000000,     6.247126961337911 ] # c
points:
- symbol: Zn # 1
  coordinates: [  0.333333333333336,  0.666666666666664,  0.000330906671147 ]
  mass: 65.380000
- symbol: Zn # 2
  coordinates: [  0.666666666666664,  0.333333333333336,  0.500330906671147 ]
  mass: 65.380000
- symbol: S # 3
  coordinates: [  0.333333333333336,  0.666666666666664,  0.374669093328853 ]
  mass: 32.065000
- symbol: S # 4
  coordinates: [  0.666666666666664,  0.333333333333336,  0.874669093328853 ]
  mass: 32.065000

phonon:
- q-position: [    0.0312500,    0.0312500,    0.0312500 ]
  distance_from_gamma:  0.017149298
  weight: 4    
  band:
  - # 1
    frequency:     0.3678365704
  - # 2
    frequency:     0.4067900912
  - # 3
    frequency:     0.9070076426
  - # 4
    frequency:     2.0909793963
  - # 5
    frequency:     2.1718178540
  - # 6
    frequency:     5.7441224346
  - # 7
    frequency:     8.2037350009
  - # 8
    frequency:     8.3720160339
  - # 9
    frequency:     8.4428280567
  - # 10
    frequency:     8.5627518278
  - # 11
    frequency:     8.5716432930
  - # 12
    frequency:    10.0615674152

- q-position: [    0.0937500,    0.0312500,    0.0312500 ]
  distance_from_gamma:  0.034511106
  weight: 8    
  band:
  - # 1
    frequency:     0.7748651442
  - # 2
    frequency:     0.8074483658
  - # 3
    frequency:     1.7398474061
  - # 4
    frequency:     2.1775831760
  - # 5
    frequency:     2.4735164565
  - # 6
    frequency:     5.6746564107
  - # 7
    frequency:     8.2441776519
  - # 8
    frequency:     8.4324479191
  - # 9
    frequency:     8.6149093691
  - # 10
    frequency:     8.6603029037
  - # 11
    frequency:     8.7458091817
  - # 12
    frequency:    10.0546066376

- q-position: [    0.1562500,    0.0312500,    0.0312500 ]
  distance_from_gamma:  0.052966678
  weight: 8    
  band:
  - # 1
    frequency:     1.1940196922
  - # 2
    frequency:     1.2127360286
  - # 3
    frequency:     2.2588429337
  - # 4
    frequency:     2.6167835279
  - # 5
    frequency:     2.9087783267
  - # 6
    frequency:     5.5903004342
  - # 7
    frequency:     8.3236723993
  - # 8
    frequency:     8.5138831765
  - # 9
    frequency:     8.7396928325
  - # 10
    frequency:     8.8038690452
  - # 11
    frequency:     9.1222435502
  - # 12
    frequency:    10.0483384102

- q-position: [    0.2187500,    0.0312500,    0.0312500 ]
  distance_from_gamma:  0.071676048
  weight: 8    
  band:
  - # 1
    frequency:     1.5398389065
  - # 2
    frequency:     1.6384796724
  - # 3
    frequency:     2.4086057847
  - # 4
    frequency:     3.1507829818
  - # 5
    frequency:     3.5422669378
  - # 6
    frequency:     5.5576516345
  - # 7
    frequency:     8.4356229401
  - # 8
    frequency:     8.5867532438
  - # 9
    frequency:     8.8667982186
  - # 10
    frequency:     8.9602578907
  - # 11
    frequency:     9.5098110177
  - # 12
    frequency:    10.0543127064

- q-position: [    0.2812500,    0.0312500,    0.0312500 ]
  distance_from_gamma:  0.090481916
  weight: 8    
  band:
  - # 1
    frequency:     1.8149098275
  - # 2
    frequency:     2.0311640555
  - # 3
    frequency:     2.5463271820
  - # 4
    frequency:     3.3695761431
  - # 5
    frequency:     4.2550873361
  - # 6
    frequency:     5.6345630529
  - # 7
    frequency:     8.5692472845
  - # 8
    frequency:     8.6311433451
  - # 9
    frequency:     8.9826335408
  - # 10
    frequency:     9.0998716326
  - # 11
    frequency:     9.7930227514
  - # 12
    frequency:    10.0981727495

- q-position: [    0.3437500,    0.0312500,    0.0312500 ]
  distance_from_gamma:  0.109334500
  weight: 8    
  band:
  - # 1
    frequency:     2.0037832257
  - # 2
    frequency:     2.3666733282
  - # 3
    frequency:     2.6685128700
  - # 4
    frequency:     3.4009102433
  - # 5
    frequency:     4.8611392931
  - # 6
    frequency:     5.7928094776
  - # 7
    frequency:     8.6375343519
  - # 8
    frequency:     8.7144450500
  - # 9
    frequency:     9.0747157954
  - # 10
    frequency:     9.2133825535
  - # 11
    frequency:     9.9009433452
  - # 12
    frequency:    10.2008003702

- q-position: [    0.4062500,    0.0312500,    0.0312500 ]
  distance_from_gamma:  0.128213194
  weight: 8    
  band:
  - # 1
    frequency:     2.1080323820
  - # 2
    frequency:     2.6257401476
  - # 3
    frequency:     2.7618582204
  - # 4
    frequency:     3.3323205309
  - # 5
    frequency:     5.3051347356
  - # 6
    frequency:     5.9296024958
  - # 7
    frequency:     8.6306298523
  - # 8
    frequency:     8.8319492691
  - # 9
    frequency:     9.1378236936
  - # 10
    frequency:     9.3000694673
  - # 11
    frequency:     9.9110787000
  - # 12
    frequency:    10.2816080960

- q-position: [    0.4687500,    0.0312500,    0.0312500 ]
  distance_from_gamma:  0.147107946
  weight: 8    
  band:
  - # 1
    frequency:     2.1466269129
  - # 2
    frequency:     2.7683304770
  - # 3
    frequency:     2.8060263863
  - # 4
    frequency:     3.2625105562
  - # 5
    frequency:     5.5248470779
  - # 6
    frequency:     5.9816441027
  - # 7
    frequency:     8.6228214699
  - # 8
    frequency:     8.8922388906
  - # 9
    frequency:     9.1670885655
  - # 10
    frequency:     9.3461515037
  - # 11
    frequency:     9.9014555750
  - # 12
    frequency:    10.3094478579

- q-position: [   -0.4687500,    0.0312500,    0.0312500 ]
  distance_from_gamma:  0.137658976
  weight: 8    
  band:
  - # 1
    frequency:     2.1342402688
  - # 2
    frequency:     2.7163405459
  - # 3
    frequency:     2.7913159206
  - # 4
    frequency:     3.2904598757
  - # 5
    frequency:     5.4482657381
  - # 6
    frequency:     5.9661466446
  - # 7
    frequency:     8.6257660659
  - # 8
    frequency:     8.8713884423
  - # 9
    frequency:     9.1571278852
  - # 10
    frequency:     9.3298289845
  - # 11
    frequency:     9.9058031865
  - # 12
    frequency:    10.3009597414

- q-position: [   -0.4062500,    0.0312500,    0.0312500 ]
  distance_from_gamma:  0.118771361
  weight: 8    
  band:
  - # 1
    frequency:     2.0655001012
  - # 2
    frequency:     2.5072328935
  - # 3
    frequency:     2.7200008684
  - # 4
    frequency:     3.3732262878
  - # 5
    frequency:     5.1065951546
  - # 6
    frequency:     5.8700240068
  - # 7
    frequency:     8.6354838865
  - # 8
    frequency:     8.7779283640
  - # 9
    frequency:     9.1100965947
  - # 10
    frequency:     9.2604429729
  - # 11
    frequency:     9.9118541991
  - # 12
    frequency:    10.2483700093

- q-position: [   -0.3437500,    0.0312500,    0.0312500 ]
  distance_from_gamma:  0.099904020
  weight: 8    
  band:
  - # 1
    frequency:     1.9205785678
  - # 2
    frequency:     2.2072314116
  - # 3
    frequency:     2.6099687232
  - # 4
    frequency:     3.4036517469
  - # 5
    frequency:     4.5753281590
  - # 6
    frequency:     5.7094650325
  - # 7
    frequency:     8.6281145571
  - # 8
    frequency:     8.6522669179
  - # 9
    frequency:     9.0321056507
  - # 10
    frequency:     9.1598575229
  - # 11
    frequency:     9.8668392047
  - # 12
    frequency:    10.1456400244

- q-position: [   -0.2812500,    0.0312500,    0.0312500 ]
  distance_from_gamma:  0.081071109
  weight: 8    
  band:
  - # 1
    frequency:     1.6873780351
  - # 2
    frequency:     1.8407081420
  - # 3
    frequency:     2.4788901196
  - # 4
    frequency:     3.2881517813
  - # 5
    frequency:     3.9071016003
  - # 6
    frequency:     5.5814405421
  - # 7
    frequency:     8.5007790732
  - # 8
    frequency:     8.6129278645
  - # 9
    frequency:     8.9270729362
  - # 10
    frequency:     9.0332066290
  - # 11
    frequency:     9.6712552834
  - # 12
    frequency:    10.0687917712

- q-position: [   -0.2187500,    0.0312500,    0.0312500 ]
  distance_from_gamma:  0.062303857
  weight: 8    
  band:
  - # 1
    frequency:     1.3747711009
  - # 2
    frequency:     1.4276640381
  - # 3
    frequency:     2.3361045844
  - # 4
    frequency:     2.9386496500
  - # 5
    frequency:     3.1905122099
  - # 6
    frequency:     5.5628225333
  - # 7
    frequency:     8.3761073343
  - # 8
    frequency:     8.5530324785
  - # 9
    frequency:     8.8036506465
  - # 10
    frequency:     8.8827277513
  - # 11
    frequency:     9.3222731456
  - # 12
    frequency:    10.0487458088

- q-position: [   -0.1562500,    0.0312500,    0.0312500 ]
  distance_from_gamma:  0.043686965
  weight: 8    
  band:
  - # 1
    frequency:     0.9899141708
  - # 2
    frequency:     1.0079066958
  - # 3
    frequency:     2.1173485680
  - # 4
    frequency:     2.2873856139
  - # 5
    frequency:     2.6788906613
  - # 6
    frequency:     5.6306817167
  - # 7
    frequency:     8.2793963099
  - # 8
    frequency:     8.4724552292
  - # 9
    frequency:     8.6768420296
  - # 10
    frequency:     8.7281519075
  - # 11
    frequency:     8.9241540716
  - # 12
    frequency:    10.0508223590

- q-position: [   -0.0937500,    0.0312500,    0.0312500 ]
  distance_from_gamma:  0.025551235
  weight: 8    
  band:
  - # 1
    frequency:     0.5645967601
  - # 2
    frequency:     0.6038827281
  - # 3
    frequency:     1.3140778725
  - # 4
    frequency:     2.1249374848
  - # 5
    frequency:     2.2995774917
  - # 6
    frequency:     5.7144193779
  - # 7
    frequency:     8.2188111780
  - # 8
    frequency:     8.3977196500
  - # 9
    frequency:     8.5378878416
  - # 10
    frequency:     8.6034072042
  - # 11
    frequency:     8.6224090935
  - # 12
    frequency:    10.0584860483

- q-position: [   -0.0312500,    0.0312500,    0.0312500 ]
  distance_from_gamma:  0.010710500
  weight: 4    
  band:
  - # 1
    frequency:     0.2200057234
  - # 2
    frequency:     0.2556586751
  - # 3
    frequency:     0.5969277490
  - # 4
    frequency:     2.0745524684
  - # 5
    frequency:     2.1032809850
  - # 6
    frequency:     5.7599224785
  - # 7
    frequency:     8.1978156737
  - # 8
    frequency:     8.3586704975
  - # 9
    frequency:     8.3842873402
  - # 10
    frequency:     8.5446631093
  - # 11
    frequency:     8.5488913631
  - # 12
    frequency:    10.0632565282

- q-position: [    0.0937500,    0.0937500,    0.0312500 ]
  distance_from_gamma:  0.049464146
  weight: 4    
  band:
  - # 1
    frequency:     1.1258499987
  - # 2
    frequency:     1.2038841633
  - # 3
    frequency:     2.1516604200
  - # 4
    frequency:     2.5622686935
  - # 5
    frequency:     2.7626181095
  - # 6
    frequency:     5.6037679989
  - # 7
    frequency:     8.3055203032
  - # 8
    frequency:     8.5290374242
  - # 9
    frequency:     8.6964089837
  - # 10
    frequency:     8.7733002700
  - # 11
    frequency:     9.0412085118
  - # 12
    frequency:    10.0477890146

- q-position: [    0.1562500,    0.0937500,    0.0312500 ]
  distance_from_gamma:  0.066482490
  weight: 8    
  band:
  - # 1
    frequency:     1.5178061421
  - # 2
    frequency:     1.5834279073
  - # 3
    frequency:     2.3643705877
  - # 4
    frequency:     3.0569742914
  - # 5
    frequency:     3.2599390368
  - # 6
    frequency:     5.5521073696
  - # 7
    frequency:     8.4010278123
  - # 8
    frequency:     8.6303548488
  - # 9
    frequency:     8.8275996777
  - # 10
    frequency:     8.8946703490
  - # 11
    frequency:     9.3927188700
  - # 12
    frequency:    10.0430298311

- q-position: [    0.2187500,    0.0937500,    0.0312500 ]
  distance_from_gamma:  0.084324822
  weight: 8    
  band:
  - # 1
    frequency:     1.8742296225
  - # 2
    frequency:     1.9235835544
  - # 3
    frequency:     2.5403878608
  - # 4
    frequency:     3.2895326318
  - # 5
    frequency:     3.9461229924
  - # 6
    frequency:     5.5785819458
  - # 7
    frequency:     8.5228733441
  - # 8
    frequency:     8.6968865349
  - # 9
    frequency:     8.9387598263
  - # 10
    frequency:     9.0515115101
  - # 11
    frequency:     9.7022349606
  - # 12
    frequency:    10.0515051767

- q-position: [    0.2812500,    0.0937500,    0.0312500 ]
  distance_from_gamma:  0.102562001
  weight: 8    
  band:
  - # 1
    frequency:     2.1124445889
  - # 2
    frequency:     2.2631153802
  - # 3
    frequency:     2.6858555969
  - # 4
    frequency:     3.3769650279
  - # 5
    frequency:     4.5668612222
  - # 6
    frequency:     5.6942937426
  - # 7
    frequency:     8.6487425010
  - # 8
    frequency:     8.7336042174
  - # 9
    frequency:     9.0105993457
  - # 10
    frequency:     9.2149484853
  - # 11
    frequency:     9.8712702321
  - # 12
    frequency:    10.1122412263

- q-position: [    0.3437500,    0.0937500,    0.0312500 ]
  distance_from_gamma:  0.121015648
  weight: 8    
  band:
  - # 1
    frequency:     2.2594769689
  - # 2
    frequency:     2.5459943113
  - # 3
    frequency:     2.7984592875
  - # 4
    frequency:     3.3521708323
  - # 5
    frequency:     5.0692706165
  - # 6
    frequency:     5.8299522183
  - # 7
    frequency:     8.6912015644
  - # 8
    frequency:     8.8218230506
  - # 9
    frequency:     9.0545686402
  - # 10
    frequency:     9.3473582603
  - # 11
    frequency:     9.8920334156
  - # 12
    frequency:    10.2114203701

- q-position: [    0.4062500,    0.0937500,    0.0312500 ]
  distance_from_gamma:  0.139599945
  weight: 8    
  band:
  - # 1
    frequency:     2.3304162210
  - # 2
    frequency:     2.7439716932
  - # 3
    frequency:     2.8637798747
  - # 4
    frequency:     3.2868790720
  - # 5
    frequency:     5.3998122393
  - # 6
    frequency:     5.9044125508
  - # 7
    frequency:     8.6844712617
  - # 8
    frequency:     8.9158688149
  - # 9
    frequency:     9.0762468802
  - # 10
    frequency:     9.4303367639
  - # 11
    frequency:     9.8712176152
  - # 12
    frequency:    10.2669925401

- q-position: [   -0.5312500,    0.0937500,    0.0312500 ]
  distance_from_gamma:  0.148925816
  weight: 8    
  band:
  - # 1
    frequency:     2.3433336787
  - # 2
    frequency:     2.7954343858
  - # 3
    frequency:     2.8729405423
  - # 4
    frequency:     3.2655065755
  - # 5
    frequency:     5.4754814726
  - # 6
    frequency:     5.9141679315
  - # 7
    frequency:     8.6818139194
  - # 8
    frequency:     8.9383594109
  - # 9
    frequency:     9.0801010301
  - # 10
    frequency:     9.4482765926
  - # 11
    frequency:     9.8638539646
  - # 12
    frequency:    10.2767853002

- q-position: [   -0.4687500,    0.0937500,    0.0312500 ]
  distance_from_gamma:  0.130294950
  weight: 8    
  band:
  - # 1
    frequency:     2.3032354652
  - # 2
    frequency:     2.6577059336
  - # 3
    frequency:     2.8385136917
  - # 4
    frequency:     3.3196407297
  - # 5
    frequency:     5.2602748855
  - # 6
    frequency:     5.8775271135
  - # 7
    frequency:     8.6886010358
  - # 8
    frequency:     8.8748275630
  - # 9
    frequency:     9.0679271916
  - # 10
    frequency:     9.3960047688
  - # 11
    frequency:     9.8824659391
  - # 12
    frequency:    10.2458304742

- q-position: [   -0.4062500,    0.0937500,    0.0312500 ]
  distance_from_gamma:  0.111768438
  weight: 8    
  band:
  - # 1
    frequency:     2.1965639558
  - # 2
    frequency:     2.4134722088
  - # 3
    frequency:     2.7467701817
  - # 4
    frequency:     3.3744005312
  - # 5
    frequency:     4.8358483961
  - # 6
    frequency:     5.7656700271
  - # 7
    frequency:     8.6841745005
  - # 8
    frequency:     8.7678870955
  - # 9
    frequency:     9.0356684229
  - # 10
    frequency:     9.2863574789
  - # 11
    frequency:     9.8924407465
  - # 12
    frequency:    10.1643081091

- q-position: [   -0.3437500,    0.0937500,    0.0312500 ]
  distance_from_gamma:  0.093408394
  weight: 8    
  band:
  - # 1
    frequency:     2.0058332942
  - # 2
    frequency:     2.0979385195
  - # 3
    frequency:     2.6169562518
  - # 4
    frequency:     3.3509580559
  - # 5
    frequency:     4.2683003025
  - # 6
    frequency:     5.6281031120
  - # 7
    frequency:     8.5884378177
  - # 8
    frequency:     8.7163120817
  - # 9
    frequency:     8.9786133350
  - # 10
    frequency:     9.1355099623
  - # 11
    frequency:     9.8102084857
  - # 12
    frequency:    10.0718413980

- q-position: [   -0.2812500,    0.0937500,    0.0312500 ]
  distance_from_gamma:  0.075336622
  weight: 8    
  band:
  - # 1
    frequency:     1.7086094211
  - # 2
    frequency:     1.7533667494
  - # 3
    frequency:     2.4561418856
  - # 4
    frequency:     3.1904993492
  - # 5
    frequency:     3.6069552950
  - # 6
    frequency:     5.5529278215
  - # 7
    frequency:     8.4594245750
  - # 8
    frequency:     8.6687097734
  - # 9
    frequency:     8.8892097223
  - # 10
    frequency:     8.9686322884
  - # 11
    frequency:     9.5585612643
  - # 12
    frequency:    10.0442141592

- q-position: [   -0.2187500,    0.0937500,    0.0312500 ]
  distance_from_gamma:  0.057824041
  weight: 8    
  band:
  - # 1
    frequency:     1.3206601206
  - # 2
    frequency:     1.4005874286
  - # 3
    frequency:     2.2648725863
  - # 4
    frequency:     2.8698359976
  - # 5
    frequency:     2.9451524701
  - # 6
    frequency:     5.5715771154
  - # 7
    frequency:     8.3493526574
  - # 8
    frequency:     8.5827129387
  - # 9
    frequency:     8.7590947024
  - # 10
    frequency:     8.8313898867
  - # 11
    frequency:     9.2164455875
  - # 12
    frequency:    10.0447235988

- q-position: [   -0.1562500,    0.0937500,    0.0312500 ]
  distance_from_gamma:  0.041583257
  weight: 8    
  band:
  - # 1
    frequency:     0.9407130659
  - # 2
    frequency:     0.9998941929
  - # 3
    frequency:     1.9886875846
  - # 4
    frequency:     2.3052480179
  - # 5
    frequency:     2.6084622649
  - # 6
    frequency:     5.6405324466
  - # 7
    frequency:     8.2703115733
  - # 8
    frequency:     8.4759484742
  - # 9
    frequency:     8.6475705224
  - # 10
    frequency:     8.7172657933
  - # 11
    frequency:     8.8792061607
  - # 12
    frequency:    10.0513131869

- q-position: [   -0.0937500,    0.0937500,    0.0312500 ]
  distance_from_gamma:  0.028848730
  weight: 4    
  band:
  - # 1
    frequency:     0.6430116703
  - # 2
    frequency:     0.6636677622
  - # 3
    frequency:     1.4842978654
  - # 4
    frequency:     2.1323666839
  - # 5
    frequency:     2.3657383564
  - # 6
    frequency:     5.7005390849
  - # 7
    frequency:     8.2271379528
  - # 8
    frequency:     8.4061321390
  - # 9
    frequency:     8.5879299498
  - # 10
    frequency:     8.6048185753
  - # 11
    frequency:     8.6629056367
  - # 12
    frequency:    10.0571259976

- q-position: [    0.1562500,    0.1562500,    0.0312500 ]
  distance_from_gamma:  0.082169997
  weight: 4    
  band:
  - # 1
    frequency:     1.8618348846
  - # 2
    frequency:     1.9702269693
  - # 3
    frequency:     2.5412746387
  - # 4
    frequency:     3.2493017526
  - # 5
    frequency:     3.8024361809
  - # 6
    frequency:     5.5591065412
  - # 7
    frequency:     8.5075113990
  - # 8
    frequency:     8.7473691896
  - # 9
    frequency:     8.9582399544
  - # 10
    frequency:     8.9840964234
  - # 11
    frequency:     9.6604653726
  - # 12
    frequency:    10.0325511872

- q-position: [    0.2187500,    0.1562500,    0.0312500 ]
  distance_from_gamma:  0.099002170
  weight: 8    
  band:
  - # 1
    frequency:     2.1898877965
  - # 2
    frequency:     2.2814872983
  - # 3
    frequency:     2.7287896342
  - # 4
    frequency:     3.3292094926
  - # 5
    frequency:     4.3394938910
  - # 6
    frequency:     5.6290486051
  - # 7
    frequency:     8.6317520034
  - # 8
    frequency:     8.7982453755
  - # 9
    frequency:     9.0415286067
  - # 10
    frequency:     9.1518900423
  - # 11
    frequency:     9.8640840477
  - # 12
    frequency:    10.0266611023

- q-position: [    0.2812500,    0.1562500,    0.0312500 ]
  distance_from_gamma:  0.116483842
  weight: 8    
  band:
  - # 1
    frequency:     2.4548127250
  - # 2
    frequency:     2.5188357345
  - # 3
    frequency:     2.8822269261
  - # 4
    frequency:     3.3293106936
  - # 5
    frequency:     4.8191363876
  - # 6
    frequency:     5.7267553812
  - # 7
    frequency:     8.7345207840
  - # 8
    frequency:     8.8328281856
  - # 9
    frequency:     9.0726121266
  - # 10
    frequency:     9.3340193441
  - # 11
    frequency:     9.9006384976
  - # 12
    frequency:    10.1018544480

- q-position: [    0.3437500,    0.1562500,    0.0312500 ]
  distance_from_gamma:  0.134361734
  weight: 8    
  band:
  - # 1
    frequency:     2.6004249209
  - # 2
    frequency:     2.7211723051
  - # 3
    frequency:     2.9739131725
  - # 4
    frequency:     3.2957267467
  - # 5
    frequency:     5.1953196992
  - # 6
    frequency:     5.7899667835
  - # 7
    frequency:     8.7551719215
  - # 8
    frequency:     8.9225234018
  - # 9
    frequency:     9.0682398495
  - # 10
    frequency:     9.4769955993
  - # 11
    frequency:     9.8452472400
  - # 12
    frequency:    10.1872002311

- q-position: [    0.4062500,    0.1562500,    0.0312500 ]
  distance_from_gamma:  0.152496558
  weight: 8    
  band:
  - # 1
    frequency:     2.6530789055
  - # 2
    frequency:     2.8471110933
  - # 3
    frequency:     2.9865323414
  - # 4
    frequency:     3.2755807231
  - # 5
    frequency:     5.3970122764
  - # 6
    frequency:     5.7956609692
  - # 7
    frequency:     8.7552919047
  - # 8
    frequency:     8.9845856453
  - # 9
    frequency:     9.0538499457
  - # 10
    frequency:     9.5530918769
  - # 11
    frequency:     9.7973303071
  - # 12
    frequency:    10.2236455312

- q-position: [   -0.5312500,    0.1562500,    0.0312500 ]
  distance_from_gamma:  0.143403090
  weight: 8    
  band:
  - # 1
    frequency:     2.6360985374
  - # 2
    frequency:     2.7988545187
  - # 3
    frequency:     2.9883314692
  - # 4
    frequency:     3.2821866221
  - # 5
    frequency:     5.3246259386
  - # 6
    frequency:     5.7975947148
  - # 7
    frequency:     8.7553966548
  - # 8
    frequency:     8.9618743878
  - # 9
    frequency:     9.0601867841
  - # 10
    frequency:     9.5257001633
  - # 11
    frequency:     9.8161130253
  - # 12
    frequency:    10.2116395831

- q-position: [   -0.4687500,    0.1562500,    0.0312500 ]
  distance_from_gamma:  0.125383766
  weight: 8    
  band:
  - # 1
    frequency:     2.5422750756
  - # 2
    frequency:     2.6250769115
  - # 3
    frequency:     2.9376559196
  - # 4
    frequency:     3.3134033685
  - # 5
    frequency:     5.0235812744
  - # 6
    frequency:     5.7659751031
  - # 7
    frequency:     8.7516682498
  - # 8
    frequency:     8.8748044848
  - # 9
    frequency:     9.0736425402
  - # 10
    frequency:     9.4120404327
  - # 11
    frequency:     9.8760459323
  - # 12
    frequency:    10.1500511950

- q-position: [   -0.4062500,    0.1562500,    0.0312500 ]
  distance_from_gamma:  0.107681316
  weight: 8    
  band:
  - # 1
    frequency:     2.3343478978
  - # 2
    frequency:     2.4067936285
  - # 3
    frequency:     2.8115451902
  - # 4
    frequency:     3.3367146882
  - # 5
    frequency:     4.5891173677
  - # 6
    frequency:     5.6783530551
  - # 7
    frequency:     8.6912927818
  - # 8
    frequency:     8.8107170197
  - # 9
    frequency:     9.0623494771
  - # 10
    frequency:     9.2459562267
  - # 11
    frequency:     9.9055075317
  - # 12
    frequency:    10.0523808776

- q-position: [   -0.3437500,    0.1562500,    0.0312500 ]
  distance_from_gamma:  0.090481916
  weight: 8    
  band:
  - # 1
    frequency:     2.0304600482
  - # 2
    frequency:     2.1365608553
  - # 3
    frequency:     2.6371709144
  - # 4
    frequency:     3.3013409957
  - # 5
    frequency:     4.0756005195
  - # 6
    frequency:     5.5871750661
  - # 7
    frequency:     8.5686334487
  - # 8
    frequency:     8.7802421926
  - # 9
    frequency:     9.0098924483
  - # 10
    frequency:     9.0582755132
  - # 11
    frequency:     9.7753178218
  - # 12
    frequency:    10.0263032436

- q-position: [   -0.2812500,    0.1562500,    0.0312500 ]
  distance_from_gamma:  0.074136516
  weight: 8    
  band:
  - # 1
    frequency:     1.6891583723
  - # 2
    frequency:     1.7838332547
  - # 3
    frequency:     2.4476714229
  - # 4
    frequency:     3.1705452134
  - # 5
    frequency:     3.5258855021
  - # 6
    frequency:     5.5477441989
  - # 7
    frequency:     8.4510995562
  - # 8
    frequency:     8.6954342804
  - # 9
    frequency:     8.8876338723
  - # 10
    frequency:     8.9383233051
  - # 11
    frequency:     9.5306089925
  - # 12
    frequency:    10.0385421243

- q-position: [   -0.2187500,    0.1562500,    0.0312500 ]
  distance_from_gamma:  0.059354893
  weight: 8    
  band:
  - # 1
    frequency:     1.3529558073
  - # 2
    frequency:     1.3830971534
  - # 3
    frequency:     2.2994433480
  - # 4
    frequency:     2.8703113420
  - # 5
    frequency:     3.0517370530
  - # 6
    frequency:     5.5681606475
  - # 7
    frequency:     8.3583468956
  - # 8
    frequency:     8.5657336729
  - # 9
    frequency:     8.7787033732
  - # 10
    frequency:     8.8499248064
  - # 11
    frequency:     9.2538005289
  - # 12
    frequency:    10.0461654355

- q-position: [   -0.1562500,    0.1562500,    0.0312500 ]
  distance_from_gamma:  0.047616364
  weight: 4    
  band:
  - # 1
    frequency:     1.0659144424
  - # 2
    frequency:     1.0848287374
  - # 3
    frequency:     2.2370904081
  - # 4
    frequency:     2.3714244081
  - # 5
    frequency:     2.7855372166
  - # 6
    frequency:     5.6127753929
  - # 7
    frequency:     8.2972885048
  - # 8
    frequency:     8.4823364683
  - # 9
    frequency:     8.7085607110
  - # 10
    frequency:     8.7593959364
  - # 11
    frequency:     9.0084552338
  - # 12
    frequency:    10.0498431563

- q-position: [    0.2187500,    0.2187500,    0.0312500 ]
  distance_from_gamma:  0.114933538
  weight: 4    
  band:
  - # 1
    frequency:     2.4636283172
  - # 2
    frequency:     2.6021739491
  - # 3
    frequency:     2.9347459699
  - # 4
    frequency:     3.3032989710
  - # 5
    frequency:     4.7022696916
  - # 6
    frequency:     5.6832529155
  - # 7
    frequency:     8.7469051355
  - # 8
    frequency:     8.8216184416
  - # 9
    frequency:     9.2028235314
  - # 10
    frequency:     9.2281591708
  - # 11
    frequency:     9.9660921957
  - # 12
    frequency:     9.9981824793

- q-position: [    0.2812500,    0.2187500,    0.0312500 ]
  distance_from_gamma:  0.131664503
  weight: 8    
  band:
  - # 1
    frequency:     2.6907799900
  - # 2
    frequency:     2.8274644375
  - # 3
    frequency:     3.0992985655
  - # 4
    frequency:     3.2606658295
  - # 5
    frequency:     5.0227104778
  - # 6
    frequency:     5.7042194316
  - # 7
    frequency:     8.8033168255
  - # 8
    frequency:     8.8576243808
  - # 9
    frequency:     9.2233925602
  - # 10
    frequency:     9.4023334199
  - # 11
    frequency:     9.8787604678
  - # 12
    frequency:    10.0984879042

- q-position: [    0.3437500,    0.2187500,    0.0312500 ]
  distance_from_gamma:  0.148925816
  weight: 8    
  band:
  - # 1
    frequency:     2.8569533981
  - # 2
    frequency:     2.9497655253
  - # 3
    frequency:     3.1095370644
  - # 4
    frequency:     3.2953965499
  - # 5
    frequency:     5.2660116995
  - # 6
    frequency:     5.6739366575
  - # 7
    frequency:     8.8057392442
  - # 8
    frequency:     8.9023032218
  - # 9
    frequency:     9.2218140930
  - # 10
    frequency:     9.5548223866
  - # 11
    frequency:     9.7701175300
  - # 12
    frequency:    10.1620557120

- q-position: [   -0.5937500,    0.2187500,    0.0312500 ]
  distance_from_gamma:  0.157701150
  weight: 8    
  band:
  - # 1
    frequency:     2.9034863903
  - # 2
    frequency:     2.9752950783
  - # 3
    frequency:     3.0851922948
  - # 4
    frequency:     3.3157512883
  - # 5
    frequency:     5.3311240602
  - # 6
    frequency:     5.6537023180
  - # 7
    frequency:     8.8077051420
  - # 8
    frequency:     8.9073476359
  - # 9
    frequency:     9.2231449479
  - # 10
    frequency:     9.6110796725
  - # 11
    frequency:     9.7209067989
  - # 12
    frequency:    10.1754396118

- q-position: [   -0.5312500,    0.2187500,    0.0312500 ]
  distance_from_gamma:  0.140240965
  weight: 8    
  band:
  - # 1
    frequency:     2.7828390614
  - # 2
    frequency:     2.9010229179
  - # 3
    frequency:     3.1259945409
  - # 4
    frequency:     3.2670789489
  - # 5
    frequency:     5.1578525214
  - # 6
    frequency:     5.6946733356
  - # 7
    frequency:     8.8040997730
  - # 8
    frequency:     8.8866595634
  - # 9
    frequency:     9.2218071201
  - # 10
    frequency:     9.4832863411
  - # 11
    frequency:     9.8255305980
  - # 12
    frequency:    10.1359652327

- q-position: [   -0.4687500,    0.2187500,    0.0312500 ]
  distance_from_gamma:  0.123219065
  weight: 8    
  band:
  - # 1
    frequency:     2.5838696029
  - # 2
    frequency:     2.7278370479
  - # 3
    frequency:     3.0278205438
  - # 4
    frequency:     3.2795139369
  - # 5
    frequency:     4.8691529495
  - # 6
    frequency:     5.6998789011
  - # 7
    frequency:     8.7917150608
  - # 8
    frequency:     8.8278868968
  - # 9
    frequency:     9.2215552147
  - # 10
    frequency:     9.3139483999
  - # 11
    frequency:     9.9267645796
  - # 12
    frequency:    10.0514704643

- q-position: [   -0.4062500,    0.2187500,    0.0312500 ]
  distance_from_gamma:  0.106845132