   9   9   0   0
  0.1263398E+02  0.4916558E-09  0.4916558E-09  0.5431625E-09  0.5000000E-15
   1.0000000000000000E-004
  CAR 
 unknown system                          
     19.69973733    -20.16289261  301      1.24666156      1.00000000
    -20.163  0.0000E+00  0.0000E+00
    -20.030  0.0000E+00  0.0000E+00
    -19.897  0.0000E+00  0.0000E+00
    -19.764  0.0000E+00  0.0000E+00
    -19.631  0.0000E+00  0.0000E+00
    -19.499  0.0000E+00  0.0000E+00
    -19.366  0.0000E+00  0.0000E+00
    -19.233  0.0000E+00  0.0000E+00
    -19.100  0.0000E+00  0.0000E+00
    -18.967  0.0000E+00  0.0000E+00
    -18.834  0.0000E+00  0.0000E+00
    -18.701  0.0000E+00  0.0000E+00
    -18.568  0.0000E+00  0.0000E+00
    -18.436  0.5056E-05  0.6718E-06
    -18.303  0.1496E+00  0.1988E-01
    -18.170  0.1238E+01  0.1844E+00
    -18.037  0.2041E+01  0.4555E+00
    -17.904  0.3857E+01  0.9681E+00
    -17.771  0.6788E+01  0.1870E+01
    -17.638  0.2032E+01  0.2140E+01
    -17.505  0.9521E+00  0.2267E+01
    -17.373  0.5425E+01  0.2987E+01
    -17.240  0.5668E+01  0.3740E+01
    -17.107  0.8994E+00  0.3860E+01
    -16.974  0.1071E+01  0.4002E+01
    -16.841  0.3010E+01  0.4402E+01
    -16.708  0.7794E+01  0.5438E+01
    -16.575  0.1084E+01  0.5582E+01
    -16.442  0.1794E+01  0.5820E+01
    -16.310  0.1350E+01  0.6000E+01
    -16.177  0.3647E+02  0.1085E+02
    -16.044  0.8691E+01  0.1200E+02
    -15.911  0.7043E-06  0.1200E+02
    -15.778  0.0000E+00  0.1200E+02
    -15.645  0.0000E+00  0.1200E+02
    -15.512  0.0000E+00  0.1200E+02
    -15.379  0.0000E+00  0.1200E+02
    -15.247  0.0000E+00  0.1200E+02
    -15.114  0.0000E+00  0.1200E+02
    -14.981  0.0000E+00  0.1200E+02
    -14.848  0.0000E+00  0.1200E+02
    -14.715  0.0000E+00  0.1200E+02
    -14.582  0.0000E+00  0.1200E+02
    -14.449  0.0000E+00  0.1200E+02
    -14.316  0.0000E+00  0.1200E+02
    -14.183  0.0000E+00  0.1200E+02
    -14.051  0.0000E+00  0.1200E+02
    -13.918  0.0000E+00  0.1200E+02
    -13.785  0.0000E+00  0.1200E+02
    -13.652  0.0000E+00  0.1200E+02
    -13.519  0.0000E+00  0.1200E+02
    -13.386  0.0000E+00  0.1200E+02
    -13.253  0.0000E+00  0.1200E+02
    -13.120  0.0000E+00  0.1200E+02
    -12.988  0.0000E+00  0.1200E+02
    -12.855  0.0000E+00  0.1200E+02
    -12.722  0.0000E+00  0.1200E+02
    -12.589  0.0000E+00  0.1200E+02
    -12.456  0.0000E+00  0.1200E+02
    -12.323  0.0000E+00  0.1200E+02
    -12.190  0.0000E+00  0.1200E+02
    -12.057  0.0000E+00  0.1200E+02
    -11.925  0.0000E+00  0.1200E+02
    -11.792  0.0000E+00  0.1200E+02
    -11.659  0.0000E+00  0.1200E+02
    -11.526  0.0000E+00  0.1200E+02
    -11.393  0.0000E+00  0.1200E+02
    -11.260  0.0000E+00  0.1200E+02
    -11.127  0.0000E+00  0.1200E+02
    -10.994  0.0000E+00  0.1200E+02
    -10.862  0.0000E+00  0.1200E+02
    -10.729  0.0000E+00  0.1200E+02
    -10.596  0.0000E+00  0.1200E+02
    -10.463  0.0000E+00  0.1200E+02
    -10.330  0.0000E+00  0.1200E+02
    -10.197  0.0000E+00  0.1200E+02
    -10.064  0.0000E+00  0.1200E+02
     -9.931  0.0000E+00  0.1200E+02
     -9.799  0.0000E+00  0.1200E+02
     -9.666  0.0000E+00  0.1200E+02
     -9.533  0.0000E+00  0.1200E+02
     -9.400  0.0000E+00  0.1200E+02
     -9.267  0.0000E+00  0.1200E+02
     -9.134  0.0000E+00  0.1200E+02
     -9.001  0.0000E+00  0.1200E+02
     -8.868  0.0000E+00  0.1200E+02
     -8.736  0.0000E+00  0.1200E+02
     -8.603  0.0000E+00  0.1200E+02
     -8.470  0.0000E+00  0.1200E+02
     -8.337  0.2432E-04  0.1200E+02
     -8.204  0.1499E+00  0.1202E+02
     -8.071  0.5758E-03  0.1202E+02
     -7.938  0.1115E+01  0.1217E+02
     -7.805  0.9054E-01  0.1218E+02
     -7.673  0.1803E+01  0.1242E+02
     -7.540  0.6277E-02  0.1242E+02
     -7.407  0.2029E+01  0.1269E+02
     -7.274  0.5985E+01  0.1349E+02
     -7.141  0.3095E+01  0.1390E+02
     -7.008  0.2891E-01  0.1390E+02
     -6.875  0.1788E+01  0.1414E+02
     -6.742  0.1445E-01  0.1414E+02
     -6.610  0.4115E-09  0.1414E+02
     -6.477  0.5037E+00  0.1421E+02
     -6.344  0.1615E+01  0.1442E+02
     -6.211  0.3213E+01  0.1485E+02
     -6.078  0.4947E+01  0.1551E+02
     -5.945  0.1762E+01  0.1574E+02
     -5.812  0.9010E+00  0.1586E+02
     -5.679  0.1860E-02  0.1586E+02
     -5.547  0.1861E-02  0.1586E+02
     -5.414  0.1732E+01  0.1609E+02
     -5.281  0.3827E+01  0.1660E+02
     -5.148  0.1966E+01  0.1686E+02
     -5.015  0.3605E+01  0.1734E+02
     -4.882  0.6269E-02  0.1734E+02
     -4.749  0.2919E+01  0.1773E+02
     -4.616  0.7233E+00  0.1782E+02
     -4.484  0.5646E+00  0.1790E+02
     -4.351  0.7621E+01  0.1891E+02
     -4.218  0.1112E+02  0.2039E+02
     -4.085  0.5072E+01  0.2106E+02
     -3.952  0.7577E+01  0.2207E+02
     -3.819  0.4075E+01  0.2261E+02
     -3.686  0.6555E+01  0.2348E+02
     -3.553  0.2961E+01  0.2388E+02
     -3.421  0.9289E+00  0.2400E+02
     -3.288  0.1003E-02  0.2400E+02
     -3.155  0.0000E+00  0.2400E+02
     -3.022  0.0000E+00  0.2400E+02
     -2.889  0.0000E+00  0.2400E+02
     -2.756  0.0000E+00  0.2400E+02
     -2.623  0.0000E+00  0.2400E+02
     -2.490  0.0000E+00  0.2400E+02
     -2.358  0.6016E-15  0.2400E+02
     -2.225  0.3852E-01  0.2401E+02
     -2.092  0.6322E+01  0.2485E+02
     -1.959  0.8055E+01  0.2592E+02
     -1.826  0.8242E+01  0.2701E+02
     -1.693  0.5878E+01  0.2779E+02
     -1.560  0.7172E+01  0.2874E+02
     -1.427  0.7139E+01  0.2969E+02
     -1.295  0.3527E+01  0.3016E+02
     -1.162  0.7632E+01  0.3118E+02
     -1.029  0.6316E+01  0.3202E+02
     -0.896  0.1000E+02  0.3334E+02
     -0.763  0.5197E+01  0.3404E+02
     -0.630  0.5562E+01  0.3477E+02
     -0.497  0.8359E+01  0.3588E+02
     -0.364  0.9649E+01  0.3717E+02
     -0.232  0.9259E+01  0.3840E+02
     -0.099  0.5400E+01  0.3911E+02
      0.034  0.9886E+01  0.4043E+02
      0.167  0.1041E+02  0.4181E+02
      0.300  0.7169E+01  0.4276E+02
      0.433  0.6130E+01  0.4358E+02
      0.566  0.4773E+01  0.4421E+02
      0.699  0.6309E+01  0.4505E+02
      0.831  0.8399E+01  0.4617E+02
      0.964  0.8213E+01  0.4726E+02
      1.097  0.5568E+01  0.4800E+02
      1.230  0.8978E-02  0.4800E+02
      1.363  0.0000E+00  0.4800E+02
      1.496  0.0000E+00  0.4800E+02
      1.629  0.0000E+00  0.4800E+02
      1.762  0.0000E+00  0.4800E+02
      1.894  0.0000E+00  0.4800E+02
      2.027  0.0000E+00  0.4800E+02
      2.160  0.0000E+00  0.4800E+02
      2.293  0.0000E+00  0.4800E+02
      2.426  0.0000E+00  0.4800E+02
      2.559  0.0000E+00  0.4800E+02
      2.692  0.0000E+00  0.4800E+02
      2.825  0.0000E+00  0.4800E+02
      2.957  0.0000E+00  0.4800E+02
      3.090  0.0000E+00  0.4800E+02
      3.223  0.0000E+00  0.4800E+02
      3.356  0.0000E+00  0.4800E+02
      3.489  0.0000E+00  0.4800E+02
      3.622  0.0000E+00  0.4800E+02
      3.755  0.0000E+00  0.4800E+02
      3.888  0.0000E+00  0.4800E+02
      4.020  0.0000E+00  0.4800E+02
      4.153  0.0000E+00  0.4800E+02
      4.286  0.0000E+00  0.4800E+02
      4.419  0.0000E+00  0.4800E+02
      4.552  0.0000E+00  0.4800E+02
      4.685  0.0000E+00  0.4800E+02
      4.818  0.0000E+00  0.4800E+02
      4.951  0.0000E+00  0.4800E+02
      5.083  0.0000E+00  0.4800E+02
      5.216  0.0000E+00  0.4800E+02
      5.349  0.0000E+00  0.4800E+02
      5.482  0.0000E+00  0.4800E+02
      5.615  0.0000E+00  0.4800E+02
      5.748  0.0000E+00  0.4800E+02
      5.881  0.0000E+00  0.4800E+02
      6.014  0.0000E+00  0.4800E+02
      6.146  0.0000E+00  0.4800E+02
      6.279  0.0000E+00  0.4800E+02
      6.412  0.0000E+00  0.4800E+02
      6.545  0.0000E+00  0.4800E+02
      6.678  0.0000E+00  0.4800E+02
      6.811  0.0000E+00  0.4800E+02
      6.944  0.4420E-03  0.4800E+02
      7.077  0.1500E+00  0.4802E+02
      7.209  0.3385E-04  0.4802E+02
      7.342  0.0000E+00  0.4802E+02
      7.475  0.4152E-08  0.4802E+02
      7.608  0.8183E+00  0.4813E+02
      7.741  0.3858E+00  0.4818E+02
      7.874  0.0000E+00  0.4818E+02
      8.007  0.2731E-03  0.4818E+02
      8.140  0.1775E+01  0.4842E+02
      8.272  0.3053E-01  0.4842E+02
      8.405  0.2764E-08  0.4842E+02
      8.538  0.6085E+00  0.4850E+02
      8.671  0.2946E+00  0.4854E+02
      8.804  0.2777E-02  0.4854E+02
      8.937  0.2777E+01  0.4891E+02
      9.070  0.2305E+00  0.4894E+02
      9.203  0.1717E+01  0.4917E+02
      9.335  0.1859E+01  0.4942E+02
      9.468  0.3841E-01  0.4942E+02
      9.601  0.1333E+01  0.4960E+02
      9.734  0.2188E+01  0.4989E+02
      9.867  0.1031E+01  0.5003E+02
     10.000  0.1768E+01  0.5026E+02
     10.133  0.1736E+01  0.5049E+02
     10.266  0.7590E+01  0.5150E+02
     10.398  0.6243E+01  0.5233E+02
     10.531  0.4937E+01  0.5298E+02
     10.664  0.7400E+01  0.5397E+02
     10.797  0.3184E+01  0.5439E+02
     10.930  0.5846E+01  0.5517E+02
     11.063  0.5966E+01  0.5596E+02
     11.196  0.4627E+01  0.5658E+02
     11.329  0.5529E+01  0.5731E+02
     11.461  0.4168E+01  0.5786E+02
     11.594  0.7457E+01  0.5885E+02
     11.727  0.1064E+02  0.6027E+02
     11.860  0.1662E+01  0.6049E+02
     11.993  0.3944E+01  0.6101E+02
     12.126  0.4150E+01  0.6156E+02
     12.259  0.4360E+01  0.6214E+02
     12.392  0.5423E+01  0.6287E+02
     12.524  0.1941E+01  0.6312E+02
     12.657  0.6075E+01  0.6393E+02
     12.790  0.2117E+01  0.6421E+02
     12.923  0.4706E+01  0.6484E+02
     13.056  0.6971E+01  0.6576E+02
     13.189  0.3931E+01  0.6629E+02
     13.322  0.5710E+01  0.6704E+02
     13.455  0.6996E+01  0.6797E+02
     13.587  0.5174E+01  0.6866E+02
     13.720  0.5211E+01  0.6935E+02
     13.853  0.5790E+01  0.7012E+02
     13.986  0.4045E+01  0.7066E+02
     14.119  0.3487E+01  0.7112E+02
     14.252  0.4807E+01  0.7176E+02
     14.385  0.3071E+01  0.7217E+02
     14.518  0.5266E+01  0.7287E+02
     14.650  0.2426E+01  0.7319E+02
     14.783  0.2540E+01  0.7353E+02
     14.916  0.1690E+01  0.7375E+02
     15.049  0.2552E+01  0.7409E+02
     15.182  0.2979E+01  0.7449E+02
     15.315  0.4631E+01  0.7511E+02
     15.448  0.4944E+01  0.7576E+02
     15.581  0.1731E+01  0.7599E+02
     15.713  0.2156E+01  0.7628E+02
     15.846  0.2625E+01  0.7663E+02
     15.979  0.3094E+01  0.7704E+02
     16.112  0.5677E+01  0.7779E+02
     16.245  0.5035E+01  0.7846E+02
     16.378  0.8073E+01  0.7953E+02
     16.511  0.5280E+01  0.8024E+02
     16.644  0.6440E+01  0.8109E+02
     16.776  0.8205E+01  0.8218E+02
     16.909  0.3542E+01  0.8265E+02
     17.042  0.2911E+01  0.8304E+02
     17.175  0.3619E+01  0.8352E+02
     17.308  0.8999E+00  0.8364E+02
     17.441  0.6735E+00  0.8373E+02
     17.574  0.1063E+01  0.8387E+02
     17.707  0.7010E-01  0.8388E+02
     17.839  0.1027E-01  0.8388E+02
     17.972  0.8928E+00  0.8400E+02
     18.105  0.3034E-04  0.8400E+02
     18.238  0.0000E+00  0.8400E+02
     18.371  0.0000E+00  0.8400E+02
     18.504  0.0000E+00  0.8400E+02
     18.637  0.0000E+00  0.8400E+02
     18.770  0.0000E+00  0.8400E+02
     18.902  0.0000E+00  0.8400E+02
     19.035  0.0000E+00  0.8400E+02
     19.168  0.0000E+00  0.8400E+02
     19.301  0.0000E+00  0.8400E+02
     19.434  0.0000E+00  0.8400E+02
     19.567  0.0000E+00  0.8400E+02
     19.700  0.0000E+00  0.8400E+02
