 vasp.6.4.3 19Mar24 (build Jul  1 2025 23:09:51) complex                         
 executed on             LinuxGNU date 2025.12.31  15:43:14
 running   14 mpi-ranks, with   14 threads/rank, on    1 nodes
 distrk:  each k-point on   14 cores,    1 groups
 distr:  one band on NCORE=   1 cores,   14 groups


--------------------------------------------------------------------------------------------------------


 INCAR:
   GGA = PE
   PREC = Accurate
   ENCUT = 520
   KSPACING = 0.3
   ISMEAR = 0
   SIGMA = 0.03
   EDIFF = 1e-6
   NELM = 120
   NELMIN = 8
   ISIF = 2
   IBRION = 1
   EDIFFG = -1e-3
   NSW = 200

 POTCAR:    PAW_PBE Zn 06Sep2000                  
 POTCAR:    PAW_PBE S 06Sep2000                   
 POTCAR:    PAW_PBE Zn 06Sep2000                  
   SHA256 =  501fddbd8274dd8e9725d4f3de27861d7f1e553a7e18441bc79fed8f346e7f23 Zn/POTCAR             
   COPYR  = (c) Copyright 06Sep2000 Georg Kresse                                                    
   COPYR  = This file is part of the software VASP. Any use, copying, and all other rights are regul
   COPYR  = If you do not have a valid VASP license, you may not use, copy or distribute this file. 
   VRHFIN =Zn: d10 p2                                                                               
   LEXCH  = PE                                                                                      
   EATOM  =  1748.8345 eV,  128.5357 Ry                                                             
                                                                                                    
   TITEL  = PAW_PBE Zn 06Sep2000                                                                    
   LULTRA =        F    use ultrasoft PP ?                                                          
   IUNSCR =        1    unscreen: 0-lin 1-nonlin 2-no                                               
   RPACOR =    2.000    partial core radius                                                         
   POMASS =   65.390; ZVAL   =   12.000    mass and valenz                                          
   RCORE  =    2.300    outmost cutoff radius                                                       
   RWIGS  =    2.400; RWIGS  =    1.270    wigner-seitz radius (au A)                               
   ENMAX  =  276.723; ENMIN  =  207.542 eV                                                          
   RCLOC  =    1.828    cutoff for local pot                                                        
   LCOR   =        T    correct aug charges                                                         
   LPAW   =        T    paw PP                                                                      
   EAUG   =  575.892                                                                                
   DEXC   =    0.000                                                                                
   RMAX   =    2.347    core radius for proj-oper                                                   
   RAUG   =    1.300    factor for augmentation sphere                                              
   RDEP   =    2.324    radius for radial grids                                                     
   RDEPT  =    1.788    core radius for aug-charge                                                  
                                                                                                    
   Atomic configuration                                                                             
    9 entries                                                                                       
     n  l   j            E        occ.                                                              
     1  0  0.50     -9524.6913   2.0000                                                             
     2  0  0.50     -1158.1882   2.0000                                                             
     2  1  1.50     -1003.8506   6.0000                                                             
     3  0  0.50      -129.2194   2.0000                                                             
     3  1  1.50       -83.3890   6.0000                                                             
     3  2  2.50       -10.1410  10.0000                                                             
     4  0  0.50        -5.9785   2.0000                                                             
     4  1  0.50        -4.0817   0.0000                                                             
     4  3  2.50        -1.3606   0.0000                                                             
   Description                                                                                      
     l       E           TYP  RCUT    TYP  RCUT                                                     
     2    -10.1410010     23  2.300                                                                 
     2    -11.5015836     23  2.300                                                                 
     0     -5.9785163     23  2.300                                                                 
     0      1.1858015     23  2.300                                                                 
     1     -2.7211652     23  2.300                                                                 
     1     13.2444212     23  2.300                                                                 
  local pseudopotential read in
  partial core-charges read in
  partial kinetic energy density read in
  atomic valenz-charges read in
  non local Contribution for L=           2  read in
    real space projection operators read in
  non local Contribution for L=           2  read in
    real space projection operators read in
  non local Contribution for L=           0  read in
    real space projection operators read in
  non local Contribution for L=           0  read in
    real space projection operators read in
  non local Contribution for L=           1  read in
    real space projection operators read in
  non local Contribution for L=           1  read in
    real space projection operators read in
    PAW grid and wavefunctions read in

   number of l-projection  operators is LMAX  =           6
   number of lm-projection operators is LMMAX =          18

 POTCAR:    PAW_PBE S 06Sep2000                   
   SHA256 =  0fc7481fb0695f01bdc6462160264c5c84044ae9ec85a907d398b887a2bc3132 S/POTCAR              
   COPYR  = (c) Copyright 06Sep2000 Georg Kresse                                                    
   COPYR  = This file is part of the software VASP. Any use, copying, and all other rights are regul
   COPYR  = If you do not have a valid VASP license, you may not use, copy or distribute this file. 
   VRHFIN =S : s2p4                                                                                 
   LEXCH  = PE                                                                                      
   EATOM  =   276.8230 eV,   20.3459 Ry                                                             
                                                                                                    
   TITEL  = PAW_PBE S 06Sep2000                                                                     
   LULTRA =        F    use ultrasoft PP ?                                                          
   IUNSCR =        1    unscreen: 0-lin 1-nonlin 2-no                                               
   RPACOR =    1.500    partial core radius                                                         
   POMASS =   32.066; ZVAL   =    6.000    mass and valenz                                          
   RCORE  =    1.900    outmost cutoff radius                                                       
   RWIGS  =    2.200; RWIGS  =    1.164    wigner-seitz radius (au A)                               
   ENMAX  =  258.689; ENMIN  =  194.016 eV                                                          
   ICORE  =        2    local potential                                                             
   LCOR   =        T    correct aug charges                                                         
   LPAW   =        T    paw PP                                                                      
   EAUG   =  335.092                                                                                
   DEXC   =    0.000                                                                                
   RMAX   =    1.942    core radius for proj-oper                                                   
   RAUG   =    1.300    factor for augmentation sphere                                              
   RDEP   =    1.954    radius for radial grids                                                     
   RDEPT  =    1.744    core radius for aug-charge                                                  
                                                                                                    
   Atomic configuration                                                                             
    6 entries                                                                                       
     n  l   j            E        occ.                                                              
     1  0  0.50     -2405.8406   2.0000                                                             
     2  0  0.50      -211.7007   2.0000                                                             
     2  1  1.50      -156.4958   6.0000                                                             
     3  0  0.50       -17.2562   2.0000                                                             
     3  1  0.50        -7.0085   4.0000                                                             
     3  2  1.50        -6.8029   0.0000                                                             
   Description                                                                                      
     l       E           TYP  RCUT    TYP  RCUT                                                     
     0    -17.2561641     23  1.900                                                                 
     0    -15.8743224     23  1.900                                                                 
     1     -7.0085400     23  1.900                                                                 
     1     -2.7779785     23  1.900                                                                 
     2     -6.8029130     23  1.900                                                                 
  local pseudopotential read in
  partial core-charges read in
  partial kinetic energy density read in
  atomic valenz-charges read in
  non local Contribution for L=           0  read in
    real space projection operators read in
  non local Contribution for L=           0  read in
    real space projection operators read in
  non local Contribution for L=           1  read in
    real space projection operators read in
  non local Contribution for L=           1  read in
    real space projection operators read in
    PAW grid and wavefunctions read in

   number of l-projection  operators is LMAX  =           4
   number of lm-projection operators is LMMAX =           8

  PAW_PBE Zn 06Sep2000                  :
 energy of atom  1       EATOM=-1748.8345
 kinetic energy error for atom=    0.0029 (will be added to EATOM!!)
  PAW_PBE S 06Sep2000                   :
 energy of atom  2       EATOM= -276.8230
 kinetic energy error for atom=    0.0016 (will be added to EATOM!!)


 POSCAR: Zn S
  positions in cartesian coordinates
  velocities in cartesian coordinates


 exchange-correlation table for PE
   RHO(1)=    0.500       N(1)  =     2000
   RHO(2)=  100.500       N(2)  =     4000



--------------------------------------------------------------------------------------------------------


 ion  position               nearest neighbor table
   1  0.333  0.667  0.000-   4 2.41   4 2.41   4 2.41   3 2.41
   2  0.667  0.333  0.500-   3 2.41   3 2.41   3 2.41   4 2.41
   3  0.333  0.667  0.375-   2 2.41   2 2.41   2 2.41   1 2.41
   4  0.667  0.333  0.875-   1 2.41   1 2.41   1 2.41   2 2.41

  LATTYP: Found a hexagonal cell.
 ALAT       =     3.9256175511
 C/A-ratio  =     1.6395977843
  
  Lattice vectors:
  
 A1 = (   1.9628087756,  -3.3996845248,  -0.0000000000)
 A2 = (   1.9628087756,   3.3996845248,   0.0000000000)
 A3 = (   0.0000000000,   0.0000000000,   6.4364338390)


Analysis of symmetry for initial positions (statically):
=====================================================================
 Subroutine PRICEL returns:
 Original cell was already a primitive cell.
 

 Routine SETGRP: Setting up the symmetry group for a 
 hexagonal supercell.


 Subroutine GETGRP returns: Found 12 space group operations
 (whereof  6 operations were pure point group operations)
 out of a pool of 24 trial point group operations.


The static configuration has the point symmetry C_3v.
 The point group associated with its full space group is C_6v.


Analysis of symmetry for dynamics (positions and initial velocities):
=====================================================================
 Subroutine PRICEL returns:
 Original cell was already a primitive cell.
 

 Routine SETGRP: Setting up the symmetry group for a 
 hexagonal supercell.


 Subroutine GETGRP returns: Found 12 space group operations
 (whereof  6 operations were pure point group operations)
 out of a pool of 24 trial point group operations.


The dynamic configuration has the point symmetry C_3v.
 The point group associated with its full space group is C_6v.


 Subroutine INISYM returns: Found 12 space group operations
 (whereof  6 operations are pure point group operations),
 and found     1 'primitive' translations


----------------------------------------------------------------------------------------

                                     Primitive cell                                     

  volume of cell :      85.8998

  direct lattice vectors                    reciprocal lattice vectors
     1.962808776 -3.399684525 -0.000000000     0.254736990 -0.147072470  0.000000000
     1.962808776  3.399684525  0.000000000     0.254736990  0.147072470 -0.000000000
     0.000000000  0.000000000  6.436433839     0.000000000 -0.000000000  0.155365537

  length of vectors
     3.925617551  3.925617551  6.436433839     0.294144940  0.294144940  0.155365537

  position of ions in fractional coordinates (direct lattice)
     0.333333333  0.666666667  0.000260133
     0.666666667  0.333333333  0.500260133
     0.333333333  0.666666667  0.374739867
     0.666666667  0.333333333  0.874739867

  ion indices of the primitive-cell ions
   primitive index   ion index
                 1           1
                 2           2
                 3           3
                 4           4

----------------------------------------------------------------------------------------



 KPOINTS: Automatic kpoint scheme                 

Automatic generation of k-mesh.
 Grid dimensions read from file:
 generate k-points for:    6    6    4

 Generating k-lattice:

  Cartesian coordinates                     Fractional coordinates (reciprocal lattice)
     0.042456165 -0.024512078  0.000000000     0.166666667  0.000000000  0.000000000
     0.042456165  0.024512078 -0.000000000     0.000000000  0.166666667  0.000000000
     0.000000000 -0.000000000  0.038841384     0.000000000  0.000000000  0.250000000

  Length of vectors
     0.049024157  0.049024157  0.038841384

  Shift w.r.t. Gamma in fractional coordinates (k-lattice)
     0.000000000  0.000000000  0.000000000

 
 Subroutine IBZKPT returns following result:
 ===========================================
 
 Found     21 irreducible k-points:
 
 Following reciprocal coordinates:
            Coordinates               Weight
  0.000000  0.000000  0.000000      1.000000
  0.166667  0.000000  0.000000      6.000000
  0.333333  0.000000  0.000000      6.000000
  0.500000  0.000000  0.000000      3.000000
  0.166667  0.166667  0.000000      6.000000
  0.333333  0.166667  0.000000     12.000000
  0.333333  0.333333  0.000000      2.000000
  0.000000  0.000000  0.250000      2.000000
  0.166667  0.000000  0.250000     12.000000
  0.333333  0.000000  0.250000     12.000000
  0.500000  0.000000  0.250000      6.000000
  0.166667  0.166667  0.250000     12.000000
  0.333333  0.166667  0.250000     24.000000
  0.333333  0.333333  0.250000      4.000000
  0.000000  0.000000  0.500000      1.000000
  0.166667  0.000000  0.500000      6.000000
  0.333333  0.000000  0.500000      6.000000
  0.500000  0.000000  0.500000      3.000000
  0.166667  0.166667  0.500000      6.000000
  0.333333  0.166667  0.500000     12.000000
  0.333333  0.333333  0.500000      2.000000
 
 Following cartesian coordinates:
            Coordinates               Weight
  0.000000 -0.000000  0.000000      1.000000
  0.042456 -0.024512  0.000000      6.000000
  0.084912 -0.049024  0.000000      6.000000
  0.127368 -0.073536  0.000000      3.000000
  0.084912  0.000000  0.000000      6.000000
  0.127368 -0.024512  0.000000     12.000000
  0.169825  0.000000  0.000000      2.000000
  0.000000 -0.000000  0.038841      2.000000
  0.042456 -0.024512  0.038841     12.000000
  0.084912 -0.049024  0.038841     12.000000
  0.127368 -0.073536  0.038841      6.000000
  0.084912  0.000000  0.038841     12.000000
  0.127368 -0.024512  0.038841     24.000000
  0.169825  0.000000  0.038841      4.000000
  0.000000 -0.000000  0.077683      1.000000
  0.042456 -0.024512  0.077683      6.000000
  0.084912 -0.049024  0.077683      6.000000
  0.127368 -0.073536  0.077683      3.000000
  0.084912  0.000000  0.077683      6.000000
  0.127368 -0.024512  0.077683     12.000000
  0.169825  0.000000  0.077683      2.000000
 


--------------------------------------------------------------------------------------------------------




 Dimension of arrays:
   k-points           NKPTS =     21   k-points in BZ     NKDIM =     21   number of bands    NBANDS=     28
   number of dos      NEDOS =    301   number of ions     NIONS =      4
   non local maximal  LDIM  =      6   non local SUM 2l+1 LMDIM =     18
   total plane-waves  NPLWV =  43200
   max r-space proj   IRMAX =      1   max aug-charges    IRDMAX=  16042
   dimension x,y,z NGX =    30 NGY =   30 NGZ =   48
   dimension x,y,z NGXF=    60 NGYF=   60 NGZF=   96
   support grid    NGXF=    60 NGYF=   60 NGZF=   96
   ions per type =               2   2
   NGX,Y,Z   is equivalent  to a cutoff of  12.70, 12.70, 12.40 a.u.
   NGXF,Y,Z  is equivalent  to a cutoff of  25.41, 25.41, 24.80 a.u.

 SYSTEM =  unknown system                          
 POSCAR =  Zn S                                    

 Startparameter for this run:
   NWRITE =      2    write-flag & timer
   PREC   = accura    normal or accurate (medium, high low for compatibility)
   ISTART =      0    job   : 0-new  1-cont  2-samecut
   ICHARG =      2    charge: 1-file 2-atom 10-const
   ISPIN  =      1    spin polarized calculation?
   LNONCOLLINEAR =      F non collinear calculations
   LSORBIT =      F    spin-orbit coupling
   INIWAV =      1    electr: 0-lowe 1-rand  2-diag
   LASPH  =      F    aspherical Exc in radial PAW
 Electronic Relaxation 1
   ENCUT  =  520.0 eV  38.22 Ry    6.18 a.u.   7.30  7.30 11.97*2*pi/ulx,y,z
   ENINI  =  520.0     initial cutoff
   ENAUG  =  575.9 eV  augmentation charge cutoff
   NELM   =    120;   NELMIN=  8; NELMDL= -5     # of ELM steps 
   EDIFF  = 0.1E-05   stopping-criterion for ELM
   LREAL  =      F    real-space projection
   NLSPLINE    = F    spline interpolate recip. space projectors
   LCOMPAT=      F    compatible to vasp.4.4
   GGA_COMPAT  = T    GGA compatible to vasp.4.4-vasp.4.6
   LMAXPAW     = -100 max onsite density
   LMAXMIX     =    2 max onsite mixed and CHGCAR
   VOSKOWN=      0    Vosko Wilk Nusair interpolation
   ROPT   =    0.00000   0.00000
 Ionic relaxation
   EDIFFG = -.1E-02   stopping-criterion for IOM
   NSW    =    200    number of steps for IOM
   NBLOCK =      1;   KBLOCK =    200    inner block; outer block 
   IBRION =      1    ionic relax: 0-MD 1-quasi-New 2-CG
   NFREE  =      0    steps in history (QN), initial steepest desc. (CG)
   ISIF   =      2    stress and relaxation
   IWAVPR =     11    prediction:  0-non 1-charg 2-wave 3-comb
   ISYM   =      2    0-nonsym 1-usesym 2-fastsym
   LCORR  =      T    Harris-Foulkes like correction to forces

   POTIM  = 0.5000    time-step for ionic-motion
   TEIN   =    0.0    initial temperature
   TEBEG  =    0.0;   TEEND  =   0.0 temperature during run
   SMASS  =  -3.00    Nose mass-parameter (am)
   estimated Nose-frequenzy (Omega)   =  0.10E-29 period in steps = 0.13E+47 mass=  -0.352E-27a.u.
   SCALEE = 1.0000    scale energy and forces
   NPACO  =    256;   APACO  = 10.0  distance and # of slots for P.C.
   PSTRESS=    0.0 pullay stress

  Mass of Ions in am
   POMASS =  65.39 32.07
  Ionic Valenz
   ZVAL   =  12.00  6.00
  Atomic Wigner-Seitz radii
   RWIGS  =  -1.00 -1.00
  virtual crystal weights 
   VCA    =   1.00  1.00
   NELECT =      36.0000    total number of electrons
   NUPDOWN=      -1.0000    fix difference up-down

 DOS related values:
   EMIN   =  10.00;   EMAX   =-10.00  energy-range for DOS
   EFERMI =   0.00;   METHOD = LEGACY      
   ISMEAR =     0;   SIGMA  =   0.03  broadening in eV -4-tet -1-fermi 0-gaus

 Electronic relaxation 2 (details)
   IALGO  =     38    algorithm
   LDIAG  =      T    sub-space diagonalisation (order eigenvalues)
   LSUBROT=      F    optimize rotation matrix (better conditioning)
   TURBO    =      0    0=normal 1=particle mesh
   IRESTART =      0    0=no restart 2=restart with 2 vectors
   NREBOOT  =      0    no. of reboots
   NMIN     =      0    reboot dimension
   EREF     =   0.00    reference energy to select bands
   IMIX   =      4    mixing-type and parameters
     AMIX     =   0.40;   BMIX     =  1.00
     AMIX_MAG =   1.60;   BMIX_MAG =  1.00
     AMIN     =   0.10
     WC   =   100.;   INIMIX=   1;  MIXPRE=   1;  MAXMIX= -45

 Intra band minimization:
   WEIMIN = 0.0010     energy-eigenvalue tresh-hold
   EBREAK =  0.89E-08  absolut break condition
   DEPER  =   0.30     relativ break condition  

   TIME   =   0.40     timestep for ELM

  volume/ion in A,a.u.               =      21.47       144.92
  Fermi-wavevector in a.u.,A,eV,Ry     =   1.225119  2.315140 20.421218  1.500917
  Thomas-Fermi vector in A             =   2.360169

 Write flags
   LWAVE        =      T    write WAVECAR
   LDOWNSAMPLE  =      F    k-point downsampling of WAVECAR
   LCHARG       =      T    write CHGCAR
   LVTOT        =      F    write LOCPOT, total local potential
   LVHAR        =      F    write LOCPOT, Hartree potential only
   WRT_POTENTIAL= false  ! write potential to hdf5 file
   LELF         =      F    write electronic localiz. function (ELF)
   LORBIT       =      0    0 simple, 1 ext, 2 COOP (PROOUT), +10 PAW based schemes


 Dipole corrections
   LMONO      =      F    monopole corrections only (constant potential shift)
   LDIPOL     =      F    correct potential (dipole corrections)
   IDIPOL     =      0    1-x, 2-y, 3-z, 4-all directions 
   EPSILON    =  1.0000000 bulk dielectric constant
   LVACPOTAV  =      F  vacuum potentials using an averaging scheme for the charge density
   VACPOTFLAT =  0.1000000 required flatness to determine vacuum potential
 Exchange correlation treatment:
   GGA     = PE    functional components
   XC_C    = 1    coefficients multiplying the functional components
   LIBXC   =     F    Libxc                    
   VOSKOWN =     0    Vosko Wilk Nusair interpolation
   LHFCALC =     F    Hartree Fock is set to
   LHFONE  =     F    Hartree Fock one center treatment
   AEXX    =    0.0000 exact exchange contribution

 Parameters of functionals:
   PE:
     No parameter

 Van der Waals corrections
   IVDW    =     0    specifies the selected vdW correction

 Linear response parameters
   LEPSILON=     F    determine dielectric tensor
   LRPA    =     F    only Hartree local field effects (RPA)
   LNABLA  =     F    use nabla operator in PAW spheres
   LVEL    =     F    velocity operator in full k-point grid
   CSHIFT  =0.1000    complex shift for real part using Kramers Kronig
   OMEGAMAX=  -1.0    maximum frequency
   DEG_THRESHOLD= 0.2000000E-02 threshold for treating states as degnerate
   RTIME   =   -0.100 relaxation time in fs
  (WPLASMAI=    0.000 imaginary part of plasma frequency in eV, 0.658/RTIME)
   DFIELD  = 0.0000000 0.0000000 0.0000000 field for delta impulse in time

  Optional k-point grid parameters
   LKPOINTS_OPT  =     F    use optional k-point grid
   KPOINTS_OPT_MODE=     1    mode for optional k-point grid

 Orbital magnetization related:
   ORBITALMAG=     F  switch on orbital magnetization
   LCHIMAG   =     F  perturbation theory with respect to B field
   DQ        =  0.001000  dq finite difference perturbation B field
   LLRAUG    =     F  two centre corrections for induced B field
   LBONE     =     F  B-component reconstruction in AE one-centre
   LVGVCALC  =     T  calculate vGv susceptibility
   LVGVAPPL  =     F  apply vGv susceptibility instead of pGv for G=0

 Random number generation:
   RANDOM_GENERATOR = DEFAULT
   PCG_SEED         = not used


--------------------------------------------------------------------------------------------------------


 quasi-Newton-method for relaxation of ions
 charge density and potential will be updated during run
 non-spin polarized calculation
 Variant of blocked Davidson
 Davidson routine will perform the subspace rotation
 perform sub-space diagonalisation
    after iterative eigenvector-optimisation
 modified Broyden-mixing scheme, WC =      100.0
 initial mixing is a Kerker type mixing with AMIX =  0.4000 and BMIX =      1.0000
 Hartree-type preconditioning will be used
 using additional bands           10
 reciprocal scheme for non local part
 use partial core corrections
 calculate Harris-corrections to forces   (improved forces if not selfconsistent)
 use gradient corrections 
 use of overlap-Matrix (Vanderbilt PP)
 Gauss-broadening in eV      SIGMA  =   0.03


--------------------------------------------------------------------------------------------------------


  energy-cutoff  :      520.00
  volume of cell :       85.90
      direct lattice vectors                 reciprocal lattice vectors
     1.962808776 -3.399684525 -0.000000000     0.254736990 -0.147072470  0.000000000
     1.962808776  3.399684525  0.000000000     0.254736990  0.147072470 -0.000000000
     0.000000000  0.000000000  6.436433839     0.000000000 -0.000000000  0.155365537

  length of vectors
     3.925617551  3.925617551  6.436433839     0.294144940  0.294144940  0.155365537



 k-points in units of 2pi/SCALE and weight: Automatic kpoint scheme                 
   0.00000000  0.00000000  0.00000000       0.007
   0.04245617 -0.02451208  0.00000000       0.042
   0.08491233 -0.04902416  0.00000000       0.042
   0.12736850 -0.07353623  0.00000000       0.021
   0.08491233 -0.00000000  0.00000000       0.042
   0.12736850 -0.02451208  0.00000000       0.083
   0.16982466 -0.00000000  0.00000000       0.014
   0.00000000  0.00000000  0.03884138       0.014
   0.04245617 -0.02451208  0.03884138       0.083
   0.08491233 -0.04902416  0.03884138       0.083
   0.12736850 -0.07353623  0.03884138       0.042
   0.08491233 -0.00000000  0.03884138       0.083
   0.12736850 -0.02451208  0.03884138       0.167
   0.16982466 -0.00000000  0.03884138       0.028
   0.00000000  0.00000000  0.07768277       0.007
   0.04245617 -0.02451208  0.07768277       0.042
   0.08491233 -0.04902416  0.07768277       0.042
   0.12736850 -0.07353623  0.07768277       0.021
   0.08491233 -0.00000000  0.07768277       0.042
   0.12736850 -0.02451208  0.07768277       0.083
   0.16982466 -0.00000000  0.07768277       0.014

 k-points in reciprocal lattice and weights: Automatic kpoint scheme                 
   0.00000000  0.00000000  0.00000000       0.007
   0.16666667  0.00000000  0.00000000       0.042
   0.33333333  0.00000000  0.00000000       0.042
   0.50000000  0.00000000  0.00000000       0.021
   0.16666667  0.16666667  0.00000000       0.042
   0.33333333  0.16666667  0.00000000       0.083
   0.33333333  0.33333333  0.00000000       0.014
   0.00000000  0.00000000  0.25000000       0.014
   0.16666667  0.00000000  0.25000000       0.083
   0.33333333  0.00000000  0.25000000       0.083
   0.50000000  0.00000000  0.25000000       0.042
   0.16666667  0.16666667  0.25000000       0.083
   0.33333333  0.16666667  0.25000000       0.167
   0.33333333  0.33333333  0.25000000       0.028
   0.00000000  0.00000000  0.50000000       0.007
   0.16666667  0.00000000  0.50000000       0.042
   0.33333333  0.00000000  0.50000000       0.042
   0.50000000  0.00000000  0.50000000       0.021
   0.16666667  0.16666667  0.50000000       0.042
   0.33333333  0.16666667  0.50000000       0.083
   0.33333333  0.33333333  0.50000000       0.014

 position of ions in fractional coordinates (direct lattice) 
   0.33333333  0.66666667  0.00026013
   0.66666667  0.33333333  0.50026013
   0.33333333  0.66666667  0.37473987
   0.66666667  0.33333333  0.87473987

 position of ions in cartesian coordinates  (Angst):
   1.96280878  1.13322817  0.00167433
   1.96280878 -1.13322817  3.21989125
   1.96280878  1.13322817  2.41198836
   1.96280878 -1.13322817  5.63020528



--------------------------------------------------------------------------------------------------------


 k-point     1 :   0.0000 0.0000 0.0000  plane waves:    2309
 k-point     2 :   0.1667 0.0000 0.0000  plane waves:    2321
 k-point     3 :   0.3333 0.0000 0.0000  plane waves:    2300
 k-point     4 :   0.5000 0.0000 0.0000  plane waves:    2296
 k-point     5 :   0.1667 0.1667 0.0000  plane waves:    2297
 k-point     6 :   0.3333 0.1667 0.0000  plane waves:    2320
 k-point     7 :   0.3333 0.3333 0.0000  plane waves:    2301
 k-point     8 :   0.0000 0.0000 0.2500  plane waves:    2346
 k-point     9 :   0.1667 0.0000 0.2500  plane waves:    2319
 k-point    10 :   0.3333 0.0000 0.2500  plane waves:    2298
 k-point    11 :   0.5000 0.0000 0.2500  plane waves:    2312
 k-point    12 :   0.1667 0.1667 0.2500  plane waves:    2315
 k-point    13 :   0.3333 0.1667 0.2500  plane waves:    2315
 k-point    14 :   0.3333 0.3333 0.2500  plane waves:    2307
 k-point    15 :   0.0000 0.0000 0.5000  plane waves:    2364
 k-point    16 :   0.1667 0.0000 0.5000  plane waves:    2314
 k-point    17 :   0.3333 0.0000 0.5000  plane waves:    2324
 k-point    18 :   0.5000 0.0000 0.5000  plane waves:    2312
 k-point    19 :   0.1667 0.1667 0.5000  plane waves:    2318
 k-point    20 :   0.3333 0.1667 0.5000  plane waves:    2308
 k-point    21 :   0.3333 0.3333 0.5000  plane waves:    2292

 maximum and minimum number of plane-waves per node :      2364     2292

 maximum number of plane-waves:      2364
 maximum index in each direction: 
   IXMAX=    7   IYMAX=    7   IZMAX=   11
   IXMIN=   -7   IYMIN=   -7   IZMIN=  -12


 serial   3D FFT for wavefunctions
 parallel 3D FFT for charge:
    minimum data exchange during FFTs selected (reduces bandwidth)


 total amount of memory used by VASP MPI-rank0    50661. kBytes
=======================================================================

   base      :      30000. kBytes
   nonl-proj :      14460. kBytes
   fftplans  :       1133. kBytes
   grid      :       3379. kBytes
   one-center:         62. kBytes
   wavefun   :       1627. kBytes

     INWAV:  cpu time      0.0000: real time      0.0000
 Broyden mixing: mesh for mixing (old mesh)
   NGX = 15   NGY = 15   NGZ = 23
  (NGX  = 60   NGY  = 60   NGZ  = 96)
  gives a total of   5175 points

 initial charge density was supplied:
 charge density of overlapping atoms calculated
 number of electron      36.0000000 magnetization 
 keeping initial charge density in first step


--------------------------------------------------------------------------------------------------------


 Maximum index for augmentation-charges         1116 (set IRDMAX)


--------------------------------------------------------------------------------------------------------


 First call to EWALD:  gamma=   0.402
 Maximum number of real-space cells 3x 3x 2
 Maximum number of reciprocal cells 2x 2x 4

    FEWALD:  cpu time      0.2074: real time      0.2125


--------------------------------------- Ionic step        1  -------------------------------------------




--------------------------------------- Iteration      1(   1)  ---------------------------------------


    POTLOK:  cpu time      0.1390: real time      0.1420
    SETDIJ:  cpu time      0.0074: real time      0.0064
     EDDAV:  cpu time     10.1151: real time     10.5200
       DOS:  cpu time      0.0002: real time      0.0002
    --------------------------------------------
      LOOP:  cpu time     10.2618: real time     10.6686

 eigenvalue-minimisations  :  1176
 total energy-change (2. order) : 0.1846189E+03  (-0.1772178E+04)
 number of electron      36.0000000 magnetization 
 augmentation part       36.0000000 magnetization 

 Free energy of the ion-electron system (eV)
  ---------------------------------------------------
  alpha Z        PSCENC =       131.64171700
  Ewald energy   TEWEN  =     -2433.96393030
  -Hartree energ DENC   =     -1424.02229599
  -exchange      EXHF   =         0.00000000
  -V(xc)+E(xc)   XCENC  =       138.00448428
  PAW double counting   =      3345.42656771    -3694.17617221
  entropy T*S    EENTRO =        -0.00071424
  eigenvalues    EBANDS =        70.40317927
  atomic energy  EATOM  =      4051.30602026
  Solvation  Ediel_sol  =         0.00000000
  ---------------------------------------------------
  free energy    TOTEN  =       184.61885579 eV

  energy without entropy =      184.61957004  energy(sigma->0) =      184.61921291


--------------------------------------------------------------------------------------------------------




--------------------------------------- Iteration      1(   2)  ---------------------------------------


     EDDAV:  cpu time     12.0831: real time     12.7545
       DOS:  cpu time      0.0002: real time      0.0002
    --------------------------------------------
      LOOP:  cpu time     12.0833: real time     12.7546

 eigenvalue-minimisations  :  1456
 total energy-change (2. order) :-0.1871118E+03  (-0.1806529E+03)
 number of electron      36.0000000 magnetization 
 augmentation part       36.0000000 magnetization 

 Free energy of the ion-electron system (eV)
  ---------------------------------------------------
  alpha Z        PSCENC =       131.64171700
  Ewald energy   TEWEN  =     -2433.96393030
  -Hartree energ DENC   =     -1424.02229599
  -exchange      EXHF   =         0.00000000
  -V(xc)+E(xc)   XCENC  =       138.00448428
  PAW double counting   =      3345.42656771    -3694.17617221
  entropy T*S    EENTRO =        -0.00000000
  eigenvalues    EBANDS =      -116.70931319
  atomic energy  EATOM  =      4051.30602026
  Solvation  Ediel_sol  =         0.00000000
  ---------------------------------------------------
  free energy    TOTEN  =        -2.49292242 eV

  energy without entropy =       -2.49292242  energy(sigma->0) =       -2.49292242


--------------------------------------------------------------------------------------------------------




--------------------------------------- Iteration      1(   3)  ---------------------------------------


     EDDAV:  cpu time     11.6360: real time     12.3219
       DOS:  cpu time      0.0001: real time      0.0001
    --------------------------------------------
      LOOP:  cpu time     11.6362: real time     12.3221

 eigenvalue-minimisations  :  1400
 total energy-change (2. order) :-0.1187124E+02  (-0.1184394E+02)
 number of electron      36.0000000 magnetization 
 augmentation part       36.0000000 magnetization 

 Free energy of the ion-electron system (eV)
  ---------------------------------------------------
  alpha Z        PSCENC =       131.64171700
  Ewald energy   TEWEN  =     -2433.96393030
  -Hartree energ DENC   =     -1424.02229599
  -exchange      EXHF   =         0.00000000
  -V(xc)+E(xc)   XCENC  =       138.00448428
  PAW double counting   =      3345.42656771    -3694.17617221
  entropy T*S    EENTRO =        -0.00000000
  eigenvalues    EBANDS =      -128.58055355
  atomic energy  EATOM  =      4051.30602026
  Solvation  Ediel_sol  =         0.00000000
  ---------------------------------------------------
  free energy    TOTEN  =       -14.36416278 eV

  energy without entropy =      -14.36416278  energy(sigma->0) =      -14.36416278


--------------------------------------------------------------------------------------------------------




--------------------------------------- Iteration      1(   4)  ---------------------------------------


     EDDAV:  cpu time     12.9549: real time     13.7349
       DOS:  cpu time      0.0001: real time      0.0001
    --------------------------------------------
      LOOP:  cpu time     12.9551: real time     13.7350

 eigenvalue-minimisations  :  1568
 total energy-change (2. order) :-0.1307895E+00  (-0.1307698E+00)
 number of electron      36.0000000 magnetization 
 augmentation part       36.0000000 magnetization 

 Free energy of the ion-electron system (eV)
  ---------------------------------------------------
  alpha Z        PSCENC =       131.64171700
  Ewald energy   TEWEN  =     -2433.96393030
  -Hartree energ DENC   =     -1424.02229599
  -exchange      EXHF   =         0.00000000
  -V(xc)+E(xc)   XCENC  =       138.00448428
  PAW double counting   =      3345.42656771    -3694.17617221
  entropy T*S    EENTRO =        -0.00000000
  eigenvalues    EBANDS =      -128.71134310
  atomic energy  EATOM  =      4051.30602026
  Solvation  Ediel_sol  =         0.00000000
  ---------------------------------------------------
  free energy    TOTEN  =       -14.49495233 eV

  energy without entropy =      -14.49495233  energy(sigma->0) =      -14.49495233


--------------------------------------------------------------------------------------------------------




--------------------------------------- Iteration      1(   5)  ---------------------------------------


     EDDAV:  cpu time     11.7499: real time     12.1386
       DOS:  cpu time      0.0001: real time      0.0001
    CHARGE:  cpu time      0.2593: real time      0.2139
    MIXING:  cpu time      0.0049: real time      0.0055
    --------------------------------------------
      LOOP:  cpu time     12.0142: real time     12.3581

 eigenvalue-minimisations  :  1442
 total energy-change (2. order) :-0.2105053E-02  (-0.2105039E-02)
 number of electron      35.9999992 magnetization 
 augmentation part       14.3056632 magnetization 

 Broyden mixing:
  rms(total) = 0.83535E+00    rms(broyden)= 0.83535E+00
  rms(prec ) = 0.11112E+01
  weight for this iteration     100.00

 Free energy of the ion-electron system (eV)
  ---------------------------------------------------
  alpha Z        PSCENC =       131.64171700
  Ewald energy   TEWEN  =     -2433.96393030
  -Hartree energ DENC   =     -1424.02229599
  -exchange      EXHF   =         0.00000000
  -V(xc)+E(xc)   XCENC  =       138.00448428
  PAW double counting   =      3345.42656771    -3694.17617221
  entropy T*S    EENTRO =        -0.00000000
  eigenvalues    EBANDS =      -128.71344815
  atomic energy  EATOM  =      4051.30602026
  Solvation  Ediel_sol  =         0.00000000
  ---------------------------------------------------
  free energy    TOTEN  =       -14.49705738 eV

  energy without entropy =      -14.49705738  energy(sigma->0) =      -14.49705738


--------------------------------------------------------------------------------------------------------




--------------------------------------- Iteration      1(   6)  ---------------------------------------


    POTLOK:  cpu time      0.0895: real time      0.0919
    SETDIJ:  cpu time      0.0040: real time      0.0040
     EDDAV:  cpu time     12.9703: real time     13.2605
       DOS:  cpu time      0.0002: real time      0.0002
    CHARGE:  cpu time      0.2471: real time      0.2212
    MIXING:  cpu time      0.0067: real time      0.0057
    --------------------------------------------
      LOOP:  cpu time     13.3177: real time     13.5835

 eigenvalue-minimisations  :  1568
 total energy-change (2. order) : 0.8392138E+00  (-0.1874697E+00)
 number of electron      35.9999992 magnetization 
 augmentation part       14.5165842 magnetization 

 Broyden mixing:
  rms(total) = 0.65798E+00    rms(broyden)= 0.65797E+00
  rms(prec ) = 0.70174E+00
  weight for this iteration     100.00

 eigenvalues of (default mixing * dielectric matrix)
  average eigenvalue GAMMA=   1.7894
  1.7894

 Free energy of the ion-electron system (eV)
  ---------------------------------------------------
  alpha Z        PSCENC =       131.64171700
  Ewald energy   TEWEN  =     -2433.96393030
  -Hartree energ DENC   =     -1411.79674355
  -exchange      EXHF   =         0.00000000
  -V(xc)+E(xc)   XCENC  =       138.06341044
  PAW double counting   =      3559.66466850    -3903.43683531
  entropy T*S    EENTRO =        -0.00000000
  eigenvalues    EBANDS =      -145.13615058
  atomic energy  EATOM  =      4051.30602026
  Solvation  Ediel_sol  =         0.00000000
  ---------------------------------------------------
  free energy    TOTEN  =       -13.65784355 eV

  energy without entropy =      -13.65784355  energy(sigma->0) =      -13.65784355


--------------------------------------------------------------------------------------------------------




--------------------------------------- Iteration      1(   7)  ---------------------------------------


    POTLOK:  cpu time      0.1085: real time      0.0964
    SETDIJ:  cpu time      0.0049: real time      0.0046
     EDDAV:  cpu time      9.3548: real time     10.0142
       DOS:  cpu time      0.0002: real time      0.0002
    CHARGE:  cpu time      0.2771: real time      0.2143
    MIXING:  cpu time      0.0071: real time      0.0072
    --------------------------------------------
      LOOP:  cpu time      9.7526: real time     10.3369

 eigenvalue-minimisations  :  1204
 total energy-change (2. order) : 0.2740282E-01  (-0.6783115E-01)
 number of electron      35.9999992 magnetization 
 augmentation part       14.4933533 magnetization 

 Broyden mixing:
  rms(total) = 0.32599E+00    rms(broyden)= 0.32599E+00
  rms(prec ) = 0.33861E+00
  weight for this iteration     100.00

 eigenvalues of (default mixing * dielectric matrix)
  average eigenvalue GAMMA=   1.7122
  0.9619  2.4625

 Free energy of the ion-electron system (eV)
  ---------------------------------------------------
  alpha Z        PSCENC =       131.64171700
  Ewald energy   TEWEN  =     -2433.96393030
  -Hartree energ DENC   =     -1413.91510100
  -exchange      EXHF   =         0.00000000
  -V(xc)+E(xc)   XCENC  =       138.47121148
  PAW double counting   =      3861.28484797    -4209.04746907
  entropy T*S    EENTRO =        -0.00000000
  eigenvalues    EBANDS =      -139.40773707
  atomic energy  EATOM  =      4051.30602026
  Solvation  Ediel_sol  =         0.00000000
  ---------------------------------------------------
  free energy    TOTEN  =       -13.63044073 eV

  energy without entropy =      -13.63044073  energy(sigma->0) =      -13.63044073


--------------------------------------------------------------------------------------------------------




--------------------------------------- Iteration      1(   8)  ---------------------------------------


    POTLOK:  cpu time      0.1093: real time      0.1056
    SETDIJ:  cpu time      0.0035: real time      0.0043
     EDDAV:  cpu time     11.5809: real time     11.4934
       DOS:  cpu time      0.0001: real time      0.0001
    CHARGE:  cpu time      0.2057: real time      0.1956
    MIXING:  cpu time      0.0053: real time      0.0056
    --------------------------------------------
      LOOP:  cpu time     11.9047: real time     11.8046

 eigenvalue-minimisations  :  1358
 total energy-change (2. order) : 0.7001114E-03  (-0.1467637E-02)
 number of electron      35.9999992 magnetization 
 augmentation part       14.4872611 magnetization 

 Broyden mixing:
  rms(total) = 0.65012E-01    rms(broyden)= 0.65012E-01
  rms(prec ) = 0.71054E-01
  weight for this iteration     100.00

 eigenvalues of (default mixing * dielectric matrix)
  average eigenvalue GAMMA=   1.5400
  2.4047  1.0371  1.1784

 Free energy of the ion-electron system (eV)
  ---------------------------------------------------
  alpha Z        PSCENC =       131.64171700
  Ewald energy   TEWEN  =     -2433.96393030
  -Hartree energ DENC   =     -1412.55613365
  -exchange      EXHF   =         0.00000000
  -V(xc)+E(xc)   XCENC  =       138.50463749
  PAW double counting   =      4106.00713026    -4454.98898223
  entropy T*S    EENTRO =        -0.00000000
  eigenvalues    EBANDS =      -139.58019945
  atomic energy  EATOM  =      4051.30602026
  Solvation  Ediel_sol  =         0.00000000
  ---------------------------------------------------
  free energy    TOTEN  =       -13.62974061 eV

  energy without entropy =      -13.62974061  energy(sigma->0) =      -13.62974061


--------------------------------------------------------------------------------------------------------




--------------------------------------- Iteration      1(   9)  ---------------------------------------


    POTLOK:  cpu time      0.1032: real time      0.0997
    SETDIJ:  cpu time      0.0047: real time      0.0047
     EDDAV:  cpu time     11.4159: real time     12.6366
       DOS:  cpu time      0.0001: real time      0.0001
    CHARGE:  cpu time      0.2516: real time      0.2034
    MIXING:  cpu time      0.0060: real time      0.0059
    --------------------------------------------
      LOOP:  cpu time     11.7815: real time     12.9503

 eigenvalue-minimisations  :  1456
 total energy-change (2. order) :-0.5181117E-03  (-0.2059392E-03)
 number of electron      35.9999992 magnetization 
 augmentation part       14.4898795 magnetization 

 Broyden mixing:
  rms(total) = 0.13347E-01    rms(broyden)= 0.13347E-01
  rms(prec ) = 0.15381E-01
  weight for this iteration     100.00

 eigenvalues of (default mixing * dielectric matrix)
  average eigenvalue GAMMA=   1.5392
  2.1523  1.1324  1.1324  1.7399

 Free energy of the ion-electron system (eV)
  ---------------------------------------------------
  alpha Z        PSCENC =       131.64171700
  Ewald energy   TEWEN  =     -2433.96393030
  -Hartree energ DENC   =     -1411.87715891
  -exchange      EXHF   =         0.00000000
  -V(xc)+E(xc)   XCENC  =       138.49722530
  PAW double counting   =      4169.50898190    -4518.56897969
  entropy T*S    EENTRO =        -0.00000000
  eigenvalues    EBANDS =      -140.17413430
  atomic energy  EATOM  =      4051.30602026
  Solvation  Ediel_sol  =         0.00000000
  ---------------------------------------------------
  free energy    TOTEN  =       -13.63025873 eV

  energy without entropy =      -13.63025873  energy(sigma->0) =      -13.63025873


--------------------------------------------------------------------------------------------------------




--------------------------------------- Iteration      1(  10)  ---------------------------------------


    POTLOK:  cpu time      0.1170: real time      0.1047
    SETDIJ:  cpu time      0.0077: real time      0.0061
     EDDAV:  cpu time     10.8802: real time     11.3820
       DOS:  cpu time      0.0001: real time      0.0001
    CHARGE:  cpu time      0.2440: real time      0.2083
    MIXING:  cpu time      0.0061: real time      0.0054
    --------------------------------------------
      LOOP:  cpu time     11.2551: real time     11.7066

 eigenvalue-minimisations  :  1344
 total energy-change (2. order) :-0.2989764E-03  (-0.3212911E-04)
 number of electron      35.9999992 magnetization 
 augmentation part       14.4898274 magnetization 

 Broyden mixing:
  rms(total) = 0.50956E-02    rms(broyden)= 0.50956E-02
  rms(prec ) = 0.68469E-02
  weight for this iteration     100.00

 eigenvalues of (default mixing * dielectric matrix)
  average eigenvalue GAMMA=   1.7393
  2.9364  2.5889  1.1859  1.0477  0.9378

 Free energy of the ion-electron system (eV)
  ---------------------------------------------------
  alpha Z        PSCENC =       131.64171700
  Ewald energy   TEWEN  =     -2433.96393030
  -Hartree energ DENC   =     -1412.02942129
  -exchange      EXHF   =         0.00000000
  -V(xc)+E(xc)   XCENC  =       138.50064084
  PAW double counting   =      4152.95326734    -4502.00441393
  entropy T*S    EENTRO =        -0.00000000
  eigenvalues    EBANDS =      -140.03443762
  atomic energy  EATOM  =      4051.30602026
  Solvation  Ediel_sol  =         0.00000000
  ---------------------------------------------------
  free energy    TOTEN  =       -13.63055770 eV

  energy without entropy =      -13.63055770  energy(sigma->0) =      -13.63055770


--------------------------------------------------------------------------------------------------------




--------------------------------------- Iteration      1(  11)  ---------------------------------------


    POTLOK:  cpu time      0.1201: real time      0.1034
    SETDIJ:  cpu time      0.0059: real time      0.0051
     EDDAV:  cpu time     11.3834: real time     12.0277
       DOS:  cpu time      0.0002: real time      0.0002
    CHARGE:  cpu time      0.1833: real time      0.2044
    MIXING:  cpu time      0.0071: real time      0.0060
    --------------------------------------------
      LOOP:  cpu time     11.7000: real time     12.3467

 eigenvalue-minimisations  :  1386
 total energy-change (2. order) :-0.1026816E-03  (-0.1330186E-04)
 number of electron      35.9999992 magnetization 
 augmentation part       14.4899825 magnetization 

 Broyden mixing:
  rms(total) = 0.13114E-02    rms(broyden)= 0.13114E-02
  rms(prec ) = 0.14743E-02
  weight for this iteration     100.00

 eigenvalues of (default mixing * dielectric matrix)
  average eigenvalue GAMMA=   1.6809
  2.8435  2.1029  2.0254  0.9183  1.0587  1.1365

 Free energy of the ion-electron system (eV)
  ---------------------------------------------------
  alpha Z        PSCENC =       131.64171700
  Ewald energy   TEWEN  =     -2433.96393030
  -Hartree energ DENC   =     -1412.09254343
  -exchange      EXHF   =         0.00000000
  -V(xc)+E(xc)   XCENC  =       138.50676014
  PAW double counting   =      4152.23675448    -4501.31175905
  entropy T*S    EENTRO =        -0.00000000
  eigenvalues    EBANDS =      -139.95367949
  atomic energy  EATOM  =      4051.30602026
  Solvation  Ediel_sol  =         0.00000000
  ---------------------------------------------------
  free energy    TOTEN  =       -13.63066038 eV

  energy without entropy =      -13.63066038  energy(sigma->0) =      -13.63066038


--------------------------------------------------------------------------------------------------------




--------------------------------------- Iteration      1(  12)  ---------------------------------------


    POTLOK:  cpu time      0.1084: real time      0.0935
    SETDIJ:  cpu time      0.0081: real time      0.0068
     EDDAV:  cpu time     12.2735: real time     12.9834
       DOS:  cpu time      0.0002: real time      0.0002
    --------------------------------------------
      LOOP:  cpu time     12.3902: real time     13.0839

 eigenvalue-minimisations  :  1498
 total energy-change (2. order) :-0.9101814E-06  (-0.7309938E-06)
 number of electron      35.9999992 magnetization 
 augmentation part       14.4899825 magnetization 

 Free energy of the ion-electron system (eV)
  ---------------------------------------------------
  alpha Z        PSCENC =       131.64171700
  Ewald energy   TEWEN  =     -2433.96393030
  -Hartree energ DENC   =     -1412.10366712
  -exchange      EXHF   =         0.00000000
  -V(xc)+E(xc)   XCENC  =       138.50824820
  PAW double counting   =      4154.50037062    -4503.58247628
  entropy T*S    EENTRO =        -0.00000000
  eigenvalues    EBANDS =      -139.93694368
  atomic energy  EATOM  =      4051.30602026
  Solvation  Ediel_sol  =         0.00000000
  ---------------------------------------------------
  free energy    TOTEN  =       -13.63066129 eV

  energy without entropy =      -13.63066129  energy(sigma->0) =      -13.63066129


--------------------------------------------------------------------------------------------------------




 average (electrostatic) potential at core
  the test charge radii are     0.9521  0.9698
  (the norm of the test charge is              1.0000)
       1 -36.8358       2 -36.8358       3 -89.1451       4 -89.1451



 E-fermi :   1.5729     XC(G=0):  -9.2306     alpha+bet : -7.4011

 val. band max:        1.3748886830   @ k =   0.0000   0.0000   0.0000
 cond. band min:       3.1819420139   @ k =   0.0000   0.0000   0.0000
 fundamental gap:      1.8070533309
 Fermi energy:         1.5728768447

 k-point     1 :       0.0000    0.0000    0.0000
  band No.  band energies     occupation 
      1     -11.2348      2.00000
      2     -10.4515      2.00000
      3      -4.6751      2.00000
      4      -4.6645      2.00000
      5      -4.6645      2.00000
      6      -4.5959      2.00000
      7      -4.5959      2.00000
      8      -4.3081      2.00000
      9      -4.3081      2.00000
     10      -4.2472      2.00000
     11      -4.2472      2.00000
     12      -4.1072      2.00000
     13      -3.4089      2.00000
     14       0.6028      2.00000
     15       0.6028      2.00000
     16       1.3078      2.00000
     17       1.3749      2.00000
     18       1.3749      2.00000
     19       3.1819      0.00000
     20       4.3109      0.00000
     21       7.7280      0.00000
     22       7.7280      0.00000
     23       7.9837      0.00000
     24       9.0066      0.00000
     25       9.0066      0.00000
     26      10.1865      0.00000
     27      11.3932      0.00000
     28      11.3932      0.00000

 k-point     2 :       0.1667    0.0000    0.0000
  band No.  band energies     occupation 
      1     -11.0791      2.00000
      2     -10.3689      2.00000
      3      -4.6662      2.00000
      4      -4.6434      2.00000
      5      -4.6363      2.00000
      6      -4.5716      2.00000
      7      -4.5537      2.00000
      8      -4.3256      2.00000
      9      -4.3072      2.00000
     10      -4.2900      2.00000
     11      -4.2411      2.00000
     12      -4.0712      2.00000
     13      -3.1924      2.00000
     14      -0.4934      2.00000
     15       0.1064      2.00000
     16       0.2632      2.00000
     17       1.0980      2.00000
     18       1.1812      2.00000
     19       4.3228      0.00000
     20       5.2338      0.00000
     21       7.1758      0.00000
     22       8.1409      0.00000
     23       8.1741      0.00000
     24       8.8885      0.00000
     25       9.5226      0.00000
     26       9.7294      0.00000
     27      10.3663      0.00000
     28      11.1432      0.00000

 k-point     3 :       0.3333    0.0000    0.0000
  band No.  band energies     occupation 
      1     -10.7103      2.00000
      2     -10.2225      2.00000
      3      -4.6415      2.00000
      4      -4.5923      2.00000
      5      -4.5787      2.00000
      6      -4.4656      2.00000
      7      -4.4626      2.00000
      8      -4.3666      2.00000
      9      -4.3037      2.00000
     10      -4.2831      2.00000
     11      -4.2282      2.00000
     12      -4.0027      2.00000
     13      -2.9029      2.00000
     14      -1.7992      2.00000
     15      -1.3809      2.00000
     16      -0.3051      2.00000
     17       0.4701      2.00000
     18       0.7961      2.00000
     19       5.2201      0.00000
     20       5.2885      0.00000
     21       6.9771      0.00000
     22       7.9266      0.00000
     23       8.3977      0.00000
     24       9.7252      0.00000
     25       9.8603      0.00000
     26      10.6962      0.00000
     27      11.4283      0.00000
     28      12.3033      0.00000

 k-point     4 :       0.5000    0.0000    0.0000
  band No.  band energies     occupation 
      1     -10.4607      2.00000
      2     -10.1918      2.00000
      3      -4.6342      2.00000
      4      -4.5781      2.00000
      5      -4.4520      2.00000
      6      -4.4518      2.00000
      7      -4.4220      2.00000
      8      -4.3637      2.00000
      9      -4.2569      2.00000
     10      -4.2190      2.00000
     11      -4.1336      2.00000
     12      -4.1065      2.00000
     13      -3.0686      2.00000
     14      -2.4053      2.00000
     15      -1.4943      2.00000
     16      -0.5583      2.00000
     17      -0.0685      2.00000
     18       0.6115      2.00000
     19       5.0833      0.00000
     20       5.3744      0.00000
     21       6.5517      0.00000
     22       8.3186      0.00000
     23       8.3987      0.00000
     24       9.6601      0.00000
     25      10.1905      0.00000
     26      12.4513      0.00000
     27      12.7727      0.00000
     28      13.4395      0.00000

 k-point     5 :       0.1667    0.1667    0.0000
  band No.  band energies     occupation 
      1     -10.8139      2.00000
      2     -10.2541      2.00000
      3      -4.6207      2.00000
      4      -4.6187      2.00000
      5      -4.5937      2.00000
      6      -4.5263      2.00000
      7      -4.4780      2.00000
      8      -4.3398      2.00000
      9      -4.3143      2.00000
     10      -4.3033      2.00000
     11      -4.2310      2.00000
     12      -4.0214      2.00000
     13      -2.9099      2.00000
     14      -1.2943      2.00000
     15      -1.1577      2.00000
     16      -0.3806      2.00000
     17       0.6422      2.00000
     18       0.7019      2.00000
     19       5.3419      0.00000
     20       6.1350      0.00000
     21       7.0449      0.00000
     22       7.2917      0.00000
     23       8.5661      0.00000
     24       8.8370      0.00000
     25       9.9175      0.00000
     26      10.0166      0.00000
     27      11.4040      0.00000
     28      11.4233      0.00000

 k-point     6 :       0.3333    0.1667    0.0000
  band No.  band energies     occupation 
      1     -10.4709      2.00000
      2     -10.1866      2.00000
      3      -4.6271      2.00000
      4      -4.5636      2.00000
      5      -4.4690      2.00000
      6      -4.4356      2.00000
      7      -4.3926      2.00000
      8      -4.3557      2.00000
      9      -4.2972      2.00000
     10      -4.2808      2.00000
     11      -4.1941      2.00000
     12      -3.9787      2.00000
     13      -2.9279      2.00000
     14      -2.2009      2.00000
     15      -1.4637      2.00000
     16      -1.0436      2.00000
     17       0.0049      2.00000
     18       0.1196      2.00000
     19       5.9828      0.00000
     20       6.1899      0.00000
     21       6.4066      0.00000
     22       8.1994      0.00000
     23       8.3644      0.00000
     24       9.7314      0.00000
     25      10.4140      0.00000
     26      10.5816      0.00000
     27      12.1350      0.00000
     28      12.5481      0.00000

 k-point     7 :       0.3333    0.3333    0.0000
  band No.  band energies     occupation 
      1     -10.2587      2.00000
      2     -10.2587      2.00000
      3      -4.6383      2.00000
      4      -4.4858      2.00000
      5      -4.4858      2.00000
      6      -4.3989      2.00000
      7      -4.3321      2.00000
      8      -4.3321      2.00000
      9      -4.2989      2.00000
     10      -4.2758      2.00000
     11      -4.0623      2.00000
     12      -4.0623      2.00000
     13      -2.5879      2.00000
     14      -2.5879      2.00000
     15      -1.9660      2.00000
     16      -0.6418      2.00000
     17      -0.6418      2.00000
     18      -0.4344      2.00000
     19       5.8928      0.00000
     20       6.8537      0.00000
     21       6.8537      0.00000
     22       9.0900      0.00000
     23       9.2534      0.00000
     24       9.2534      0.00000
     25      10.4424      0.00000
     26      10.4424      0.00000
     27      11.4625      0.00000
     28      12.4867      0.00000

 k-point     8 :       0.0000    0.0000    0.2500
  band No.  band energies     occupation 
      1     -11.1337      2.00000
      2     -10.5823      2.00000
      3      -4.6734      2.00000
      4      -4.6574      2.00000
      5      -4.6574      2.00000
      6      -4.6090      2.00000
      7      -4.6090      2.00000
      8      -4.4183      2.00000
      9      -4.2971      2.00000
     10      -4.2971      2.00000
     11      -4.2538      2.00000
     12      -4.2538      2.00000
     13      -2.6590      2.00000
     14       0.2535      2.00000
     15       0.7081      2.00000
     16       0.7081      2.00000
     17       1.2531      2.00000
     18       1.2531      2.00000
     19       4.0799      0.00000
     20       4.4462      0.00000
     21       7.6447      0.00000
     22       7.8228      0.00000
     23       7.8228      0.00000
     24       8.6928      0.00000
     25       8.6928      0.00000
     26       9.3635      0.00000
     27      11.9247      0.00000
     28      11.9247      0.00000

 k-point     9 :       0.1667    0.0000    0.2500
  band No.  band energies     occupation 
      1     -10.9855      2.00000
      2     -10.4847      2.00000
      3      -4.6706      2.00000
      4      -4.6344      2.00000
      5      -4.6265      2.00000
      6      -4.5854      2.00000
      7      -4.5683      2.00000
      8      -4.4222      2.00000
      9      -4.3060      2.00000
     10      -4.2964      2.00000
     11      -4.2497      2.00000
     12      -4.2187      2.00000
     13      -2.5547      2.00000
     14      -0.4551      2.00000
     15      -0.2475      2.00000
     16       0.3850      2.00000
     17       0.8258      2.00000
     18       1.0313      2.00000
     19       4.8013      0.00000
     20       5.3612      0.00000
     21       7.1385      0.00000
     22       7.7116      0.00000
     23       8.3081      0.00000
     24       8.3419      0.00000
     25       9.3888      0.00000
     26       9.4992      0.00000
     27      11.0036      0.00000
     28      11.6378      0.00000

 k-point    10 :       0.3333    0.0000    0.2500
  band No.  band energies     occupation 
      1     -10.6412      2.00000
      2     -10.2960      2.00000
      3      -4.6489      2.00000
      4      -4.5914      2.00000
      5      -4.5748      2.00000
      6      -4.4848      2.00000
      7      -4.4713      2.00000
      8      -4.4136      2.00000
      9      -4.2899      2.00000
     10      -4.2767      2.00000
     11      -4.2385      2.00000
     12      -4.1194      2.00000
     13      -2.7427      2.00000
     14      -1.8847      2.00000
     15      -1.1093      2.00000
     16      -0.1614      2.00000
     17       0.4797      2.00000
     18       0.6115      2.00000
     19       4.8747      0.00000
     20       5.4912      0.00000
     21       7.0965      0.00000
     22       7.3502      0.00000
     23       8.7925      0.00000
     24       9.3975      0.00000
     25       9.8415      0.00000
     26      10.8845      0.00000
     27      11.0654      0.00000
     28      12.5441      0.00000

 k-point    11 :       0.5000    0.0000    0.2500
  band No.  band energies     occupation 
      1     -10.4183      2.00000
      2     -10.2276      2.00000
      3      -4.6428      2.00000
      4      -4.5559      2.00000
      5      -4.5377      2.00000
      6      -4.4443      2.00000
      7      -4.4355      2.00000
      8      -4.3528      2.00000
      9      -4.2543      2.00000
     10      -4.2292      2.00000
     11      -4.1245      2.00000
     12      -4.0900      2.00000
     13      -3.1851      2.00000
     14      -2.6852      2.00000
     15      -0.9419      2.00000
     16      -0.4055      2.00000
     17       0.1638      2.00000
     18       0.4147      2.00000
     19       4.7833      0.00000
     20       5.1752      0.00000
     21       7.0163      0.00000
     22       7.2130      0.00000
     23       8.7925      0.00000
     24       9.3527      0.00000
     25      10.6922      0.00000
     26      11.6714      0.00000
     27      12.7444      0.00000
     28      13.9875      0.00000

 k-point    12 :       0.1667    0.1667    0.2500
  band No.  band energies     occupation 
      1     -10.7366      2.00000
      2     -10.3409      2.00000
      3      -4.6307      2.00000
      4      -4.6097      2.00000
      5      -4.5838      2.00000
      6      -4.5374      2.00000
      7      -4.4960      2.00000
      8      -4.4173      2.00000
      9      -4.3133      2.00000
     10      -4.2840      2.00000
     11      -4.2394      2.00000
     12      -4.1500      2.00000
     13      -2.5623      2.00000
     14      -1.4300      2.00000
     15      -0.9328      2.00000
     16      -0.3164      2.00000
     17       0.4492      2.00000
     18       0.6461      2.00000
     19       5.3214      0.00000
     20       6.1589      0.00000
     21       7.1441      0.00000
     22       7.2896      0.00000
     23       8.2591      0.00000
     24       8.6241      0.00000
     25       9.5662      0.00000
     26      10.2670      0.00000
     27      11.4298      0.00000
     28      11.7875      0.00000

 k-point    13 :       0.3333    0.1667    0.2500
  band No.  band energies     occupation 
      1     -10.4266      2.00000
      2     -10.2249      2.00000
      3      -4.6138      2.00000
      4      -4.5679      2.00000
      5      -4.5082      2.00000
      6      -4.4517      2.00000
      7      -4.4121      2.00000
      8      -4.3838      2.00000
      9      -4.2821      2.00000
     10      -4.2703      2.00000
     11      -4.1795      2.00000
     12      -4.0215      2.00000
     13      -2.9889      2.00000
     14      -2.4514      2.00000
     15      -1.1479      2.00000
     16      -0.6854      2.00000
     17      -0.1332      2.00000
     18       0.2626      2.00000
     19       5.4384      0.00000
     20       6.1392      0.00000
     21       7.0129      0.00000
     22       7.4435      0.00000
     23       8.2596      0.00000
     24       9.4955      0.00000
     25      10.2139      0.00000
     26      10.9144      0.00000
     27      11.8717      0.00000
     28      12.9191      0.00000

 k-point    14 :       0.3333    0.3333    0.2500
  band No.  band energies     occupation 
      1     -10.2531      2.00000
      2     -10.2531      2.00000
      3      -4.6067      2.00000
      4      -4.5145      2.00000
      5      -4.5145      2.00000
      6      -4.4313      2.00000
      7      -4.3418      2.00000
      8      -4.3418      2.00000
      9      -4.3012      2.00000
     10      -4.2943      2.00000
     11      -4.0335      2.00000
     12      -4.0335      2.00000
     13      -2.7997      2.00000
     14      -2.7997      2.00000
     15      -1.7691      2.00000
     16      -0.7058      2.00000
     17      -0.2101      2.00000
     18      -0.2101      2.00000
     19       6.3077      0.00000
     20       6.3077      0.00000
     21       6.4446      0.00000
     22       8.6456      0.00000
     23       8.6456      0.00000
     24       8.8382      0.00000
     25      11.2083      0.00000
     26      11.2083      0.00000
     27      11.2738      0.00000
     28      11.6839      0.00000

 k-point    15 :       0.0000    0.0000    0.5000
  band No.  band energies     occupation 
      1     -10.8725      2.00000
      2     -10.8725      2.00000
      3      -4.6361      2.00000
      4      -4.6361      2.00000
      5      -4.6361      2.00000
      6      -4.6361      2.00000
      7      -4.6250      2.00000
      8      -4.6250      2.00000
      9      -4.2733      2.00000
     10      -4.2733      2.00000
     11      -4.2733      2.00000
     12      -4.2733      2.00000
     13      -1.2977      2.00000
     14      -1.2977      2.00000
     15       0.9725      2.00000
     16       0.9725      2.00000
     17       0.9725      2.00000
     18       0.9725      2.00000
     19       4.6561      0.00000
     20       4.6561      0.00000
     21       7.9867      0.00000
     22       7.9867      0.00000
     23       8.1620      0.00000
     24       8.1620      0.00000
     25       8.1620      0.00000
     26       8.1620      0.00000
     27      13.1431      0.00000
     28      13.1446      0.00000

 k-point    16 :       0.1667    0.0000    0.5000
  band No.  band energies     occupation 
      1     -10.7461      2.00000
      2     -10.7461      2.00000
      3      -4.6442      2.00000
      4      -4.6442      2.00000
      5      -4.5998      2.00000
      6      -4.5998      2.00000
      7      -4.5847      2.00000
      8      -4.5847      2.00000
      9      -4.2719      2.00000
     10      -4.2719      2.00000
     11      -4.2694      2.00000
     12      -4.2694      2.00000
     13      -1.4419      2.00000
     14      -1.4419      2.00000
     15       0.2045      2.00000
     16       0.2045      2.00000
     17       0.6945      2.00000
     18       0.6945      2.00000
     19       5.4651      0.00000
     20       5.4651      0.00000
     21       7.0687      0.00000
     22       7.0687      0.00000
     23       8.6220      0.00000
     24       8.6220      0.00000
     25       8.7745      0.00000
     26       8.7745      0.00000
     27      12.4699      0.00000
     28      12.4699      0.00000

 k-point    17 :       0.3333    0.0000    0.5000
  band No.  band energies     occupation 
      1     -10.4709      2.00000
      2     -10.4709      2.00000
      3      -4.6342      2.00000
      4      -4.6342      2.00000
      5      -4.5307      2.00000
      6      -4.5307      2.00000
      7      -4.4756      2.00000
      8      -4.4756      2.00000
      9      -4.2594      2.00000
     10      -4.2594      2.00000
     11      -4.2294      2.00000
     12      -4.2294      2.00000
     13      -2.3647      2.00000
     14      -2.3647      2.00000
     15      -0.1335      2.00000
     16      -0.1335      2.00000
     17       0.2053      2.00000
     18       0.2053      2.00000
     19       5.2017      0.00000
     20       5.2017      0.00000
     21       6.9064      0.00000
     22       6.9064      0.00000
     23       9.5339      0.00000
     24       9.5339      0.00000
     25       9.7750      0.00000
     26       9.7750      0.00000
     27      12.2243      0.00000
     28      12.2243      0.00000

 k-point    18 :       0.5000    0.0000    0.5000
  band No.  band energies     occupation 
      1     -10.3196      2.00000
      2     -10.3196      2.00000
      3      -4.6274      2.00000
      4      -4.6274      2.00000
      5      -4.5005      2.00000
      6      -4.5005      2.00000
      7      -4.3911      2.00000
      8      -4.3911      2.00000
      9      -4.2452      2.00000
     10      -4.2452      2.00000
     11      -4.1008      2.00000
     12      -4.1008      2.00000
     13      -3.0777      2.00000
     14      -3.0777      2.00000
     15      -0.0496      2.00000
     16      -0.0496      2.00000
     17      -0.0166      2.00000
     18      -0.0166      2.00000
     19       4.8715      0.00000
     20       4.8715      0.00000
     21       6.6394      0.00000
     22       6.6394      0.00000
     23      10.0369      0.00000
     24      10.0369      0.00000
     25      10.1982      0.00000
     26      10.1982      0.00000
     27      13.1979      0.00000
     28      13.1979      0.00000

 k-point    19 :       0.1667    0.1667    0.5000
  band No.  band energies     occupation 
      1     -10.5435      2.00000
      2     -10.5435      2.00000
      3      -4.6161      2.00000
      4      -4.6161      2.00000
      5      -4.5582      2.00000
      6      -4.5582      2.00000
      7      -4.5245      2.00000
      8      -4.5245      2.00000
      9      -4.2711      2.00000
     10      -4.2711      2.00000
     11      -4.2397      2.00000
     12      -4.2397      2.00000
     13      -1.9937      2.00000
     14      -1.9937      2.00000
     15      -0.1055      2.00000
     16      -0.1055      2.00000
     17       0.0961      2.00000
     18       0.0961      2.00000
     19       5.8379      0.00000
     20       5.8379      0.00000
     21       7.0613      0.00000
     22       7.0613      0.00000
     23       8.4033      0.00000
     24       8.4033      0.00000
     25       9.6264      0.00000
     26       9.6264      0.00000
     27      12.3055      0.00000
     28      12.3055      0.00000

 k-point    20 :       0.3333    0.1667    0.5000
  band No.  band energies     occupation 
      1     -10.3228      2.00000
      2     -10.3228      2.00000
      3      -4.5921      2.00000
      4      -4.5921      2.00000
      5      -4.5070      2.00000
      6      -4.5070      2.00000
      7      -4.4149      2.00000
      8      -4.4149      2.00000
      9      -4.2684      2.00000
     10      -4.2684      2.00000
     11      -4.1148      2.00000
     12      -4.1148      2.00000
     13      -2.8348      2.00000
     14      -2.8348      2.00000
     15      -0.6547      2.00000
     16      -0.6547      2.00000
     17       0.1115      2.00000
     18       0.1115      2.00000
     19       5.4879      0.00000
     20       5.4879      0.00000
     21       7.2262      0.00000
     22       7.2262      0.00000
     23       8.7849      0.00000
     24       8.7849      0.00000
     25      10.2333      0.00000
     26      10.2333      0.00000
     27      12.6960      0.00000
     28      12.6960      0.00000

 k-point    21 :       0.3333    0.3333    0.5000
  band No.  band energies     occupation 
      1     -10.2475      2.00000
      2     -10.2475      2.00000
      3      -4.5445      2.00000
      4      -4.5445      2.00000
      5      -4.5227      2.00000
      6      -4.5227      2.00000
      7      -4.3489      2.00000
      8      -4.3489      2.00000
      9      -4.3043      2.00000
     10      -4.3043      2.00000
     11      -4.0056      2.00000
     12      -4.0056      2.00000
     13      -2.9640      2.00000
     14      -2.9640      2.00000
     15      -1.2718      2.00000
     16      -1.2718      2.00000
     17       0.2085      2.00000
     18       0.2085      2.00000
     19       5.7253      0.00000
     20       5.7253      0.00000
     21       7.7417      0.00000
     22       7.7417      0.00000
     23       8.4694      0.00000
     24       8.4694      0.00000
     25      11.0611      0.00000
     26      11.0611      0.00000
     27      11.3003      0.00000
     28      11.3003      0.00000


--------------------------------------------------------------------------------------------------------


 soft charge-density along one line, spin component           1
         0         1         2         3         4         5         6         7         8         9
 total charge-density along one line

 pseudopotential strength for first ion, spin component:           1
-10.239  -0.000   0.000  -0.001   0.000 -10.579  -0.000   0.000
 -0.000 -10.240   0.000  -0.000  -0.001  -0.000 -10.580   0.000
  0.000   0.000 -10.238  -0.000   0.000   0.000   0.000 -10.578
 -0.001  -0.000  -0.000 -10.240  -0.000  -0.001  -0.000  -0.000
  0.000  -0.001   0.000  -0.000 -10.239   0.000  -0.001   0.000
-10.579  -0.000   0.000  -0.001   0.000 -10.845  -0.000   0.000
 -0.000 -10.580   0.000  -0.000  -0.001  -0.000 -10.846   0.000
  0.000   0.000 -10.578  -0.000   0.000   0.000   0.000 -10.845
 -0.001  -0.000  -0.000 -10.580  -0.000  -0.001  -0.000  -0.000
  0.000  -0.001   0.000  -0.000 -10.579   0.000  -0.001   0.000
 -0.000  -0.000  -0.000  -0.000  -0.000  -0.000  -0.000  -0.000
 -0.000  -0.000  -0.000  -0.000  -0.000  -0.000  -0.000  -0.000
  0.000   0.002  -0.000   0.000  -0.002   0.000   0.001  -0.000
  0.000  -0.000  -0.002   0.000   0.000   0.000  -0.000  -0.001
 -0.002   0.000   0.000   0.002   0.000  -0.001   0.000  -0.000
 -0.000   0.002  -0.000   0.000  -0.002  -0.000   0.001  -0.000
  0.000  -0.000  -0.002   0.000   0.000   0.000  -0.000  -0.001
 -0.002   0.000   0.000   0.002   0.000  -0.001   0.000   0.000
 total augmentation occupancy for first ion, spin component:           1
  3.320   0.000  -0.000  -0.577   0.000  -1.288  -0.000   0.000   0.570  -0.000   0.000  -0.000   0.000   0.000  -0.474  -0.000
  0.000   2.913   0.000   0.000  -0.577  -0.000  -0.886  -0.000  -0.000   0.570   0.000   0.000   0.338  -0.000   0.000  -0.048
 -0.000   0.000   3.723   0.000  -0.000   0.000  -0.000  -1.682  -0.000   0.000   0.007  -0.000   0.000  -0.574   0.000  -0.000
 -0.577   0.000   0.000   2.913  -0.000   0.570  -0.000  -0.000  -0.886   0.000   0.000   0.000   0.000   0.000   0.338  -0.000
  0.000  -0.577  -0.000  -0.000   3.320   0.000   0.570   0.000   0.000  -1.288  -0.000   0.000  -0.474   0.000  -0.000   0.067
 -1.288  -0.000   0.000   0.570  -0.000   1.249   0.000  -0.000  -0.562   0.000  -0.000   0.000  -0.000  -0.000   0.457   0.000
 -0.000  -0.886  -0.000  -0.000   0.570   0.000   0.853   0.000   0.000  -0.562  -0.000  -0.000  -0.326   0.000  -0.000   0.054
  0.000  -0.000  -1.682  -0.000   0.000  -0.000   0.000   1.635   0.000  -0.000  -0.007   0.001  -0.000   0.554  -0.000   0.000
  0.570  -0.000  -0.000  -0.886   0.000  -0.562   0.000   0.000   0.853  -0.000   0.000   0.000  -0.000   0.000  -0.326   0.000
  0.000   0.570   0.000   0.000  -1.288   0.000  -0.562  -0.000  -0.000   1.249  -0.000   0.000   0.457  -0.000   0.000  -0.076
  0.000   0.000   0.007  -0.000  -0.000  -0.000  -0.000  -0.007   0.000  -0.000   2.251  -0.490  -0.000  -0.002  -0.000   0.000
 -0.000   0.000  -0.000   0.000   0.000   0.000  -0.000   0.001   0.000   0.000  -0.490   0.129   0.000   0.001   0.000   0.000
  0.000   0.338   0.000   0.000  -0.474  -0.000  -0.326  -0.000  -0.000   0.457   0.000   0.000   0.306   0.000   0.000  -0.051
  0.000   0.000  -0.574   0.000   0.000  -0.000  -0.000   0.554   0.000  -0.000  -0.002   0.001   0.000   0.305   0.000  -0.000
 -0.474   0.000   0.000   0.338  -0.000   0.457  -0.000  -0.000  -0.326   0.000  -0.000   0.000   0.000   0.000   0.306  -0.000
 -0.000  -0.048  -0.000  -0.000   0.067   0.000   0.054   0.000   0.000  -0.076   0.000   0.000  -0.051  -0.000  -0.000   0.010
 -0.000  -0.000   0.082   0.000  -0.000   0.000  -0.000  -0.092   0.000   0.000   0.001  -0.000   0.000  -0.051  -0.000  -0.000
  0.067  -0.000  -0.000  -0.048   0.000  -0.076   0.000   0.000   0.054  -0.000   0.000   0.000  -0.000   0.000  -0.051   0.000


------------------------ aborting loop because EDIFF is reached ----------------------------------------


    CHARGE:  cpu time      0.2348: real time      0.2150
    FORLOC:  cpu time      0.0062: real time      0.0053
    FORNL :  cpu time      0.0566: real time      0.0544
    STRESS:  cpu time      0.4229: real time      0.4357
    FORCOR:  cpu time      0.0934: real time      0.0923
    FORHAR:  cpu time      0.0219: real time      0.0222
    MIXING:  cpu time      0.0064: real time      0.0065
    OFIELD:  cpu time      0.0000: real time      0.0000

  FORCE on cell =-STRESS in cart. coord.  units (eV):
  Direction    XX          YY          ZZ          XY          YZ          ZX
  --------------------------------------------------------------------------------------
[...]
     23       8.2547      0.00000
     24       8.6253      0.00000
     25       9.5639      0.00000
     26      10.2710      0.00000
     27      11.4312      0.00000
     28      11.7857      0.00000

 k-point    13 :       0.3333    0.1667    0.2500
  band No.  band energies     occupation 
      1     -10.4264      2.00000
      2     -10.2249      2.00000
      3      -4.6132      2.00000
      4      -4.5670      2.00000
      5      -4.5072      2.00000
      6      -4.4520      2.00000
      7      -4.4114      2.00000
      8      -4.3840      2.00000
      9      -4.2817      2.00000
     10      -4.2701      2.00000
     11      -4.1795      2.00000
     12      -4.0212      2.00000
     13      -2.9894      2.00000
     14      -2.4535      2.00000
     15      -1.1478      2.00000
     16      -0.6839      2.00000
     17      -0.1365      2.00000
     18       0.2655      2.00000
     19       5.4405      0.00000
     20       6.1401      0.00000
     21       7.0162      0.00000
     22       7.4429      0.00000
     23       8.2594      0.00000
     24       9.4946      0.00000
     25      10.2148      0.00000
     26      10.9169      0.00000
     27      11.8735      0.00000
     28      12.9213      0.00000

 k-point    14 :       0.3333    0.3333    0.2500
  band No.  band energies     occupation 
      1     -10.2529      2.00000
      2     -10.2529      2.00000
      3      -4.6060      2.00000
      4      -4.5132      2.00000
      5      -4.5132      2.00000
      6      -4.4315      2.00000
      7      -4.3414      2.00000
      8      -4.3414      2.00000
      9      -4.3012      2.00000
     10      -4.2940      2.00000
     11      -4.0333      2.00000
     12      -4.0333      2.00000
     13      -2.8016      2.00000
     14      -2.8016      2.00000
     15      -1.7705      2.00000
     16      -0.7101      2.00000
     17      -0.2070      2.00000
     18      -0.2070      2.00000
     19       6.3087      0.00000
     20       6.3087      0.00000
     21       6.4523      0.00000
     22       8.6430      0.00000
     23       8.6430      0.00000
     24       8.8421      0.00000
     25      11.2067      0.00000
     26      11.2067      0.00000
     27      11.2735      0.00000
     28      11.6860      0.00000

 k-point    15 :       0.0000    0.0000    0.5000
  band No.  band energies     occupation 
      1     -10.8729      2.00000
      2     -10.8729      2.00000
      3      -4.6370      2.00000
      4      -4.6370      2.00000
      5      -4.6370      2.00000
      6      -4.6370      2.00000
      7      -4.6227      2.00000
      8      -4.6227      2.00000
      9      -4.2729      2.00000
     10      -4.2729      2.00000
     11      -4.2729      2.00000
     12      -4.2729      2.00000
     13      -1.2937      2.00000
     14      -1.2937      2.00000
     15       0.9723      2.00000
     16       0.9723      2.00000
     17       0.9723      2.00000
     18       0.9723      2.00000
     19       4.6537      0.00000
     20       4.6537      0.00000
     21       7.9861      0.00000
     22       7.9861      0.00000
     23       8.1605      0.00000
     24       8.1605      0.00000
     25       8.1605      0.00000
     26       8.1605      0.00000
     27      13.1446      0.00000
     28      13.1446      0.00000

 k-point    16 :       0.1667    0.0000    0.5000
  band No.  band energies     occupation 
      1     -10.7464      2.00000
      2     -10.7464      2.00000
      3      -4.6442      2.00000
      4      -4.6442      2.00000
      5      -4.6006      2.00000
      6      -4.6006      2.00000
      7      -4.5836      2.00000
      8      -4.5836      2.00000
      9      -4.2716      2.00000
     10      -4.2716      2.00000
     11      -4.2689      2.00000
     12      -4.2689      2.00000
     13      -1.4386      2.00000
     14      -1.4386      2.00000
     15       0.2041      2.00000
     16       0.2041      2.00000
     17       0.6937      2.00000
     18       0.6937      2.00000
     19       5.4643      0.00000
     20       5.4643      0.00000
     21       7.0684      0.00000
     22       7.0684      0.00000
     23       8.6192      0.00000
     24       8.6192      0.00000
     25       8.7746      0.00000
     26       8.7746      0.00000
     27      12.4739      0.00000
     28      12.4739      0.00000

 k-point    17 :       0.3333    0.0000    0.5000
  band No.  band energies     occupation 
      1     -10.4709      2.00000
      2     -10.4709      2.00000
      3      -4.6336      2.00000
      4      -4.6336      2.00000
      5      -4.5311      2.00000
      6      -4.5311      2.00000
      7      -4.4751      2.00000
      8      -4.4751      2.00000
      9      -4.2592      2.00000
     10      -4.2592      2.00000
     11      -4.2289      2.00000
     12      -4.2289      2.00000
     13      -2.3648      2.00000
     14      -2.3648      2.00000
     15      -0.1313      2.00000
     16      -0.1313      2.00000
     17       0.2035      2.00000
     18       0.2035      2.00000
     19       5.2035      0.00000
     20       5.2035      0.00000
     21       6.9037      0.00000
     22       6.9037      0.00000
     23       9.5334      0.00000
     24       9.5334      0.00000
     25       9.7795      0.00000
     26       9.7795      0.00000
     27      12.2265      0.00000
     28      12.2265      0.00000

 k-point    18 :       0.5000    0.0000    0.5000
  band No.  band energies     occupation 
      1     -10.3195      2.00000
      2     -10.3195      2.00000
      3      -4.6266      2.00000
      4      -4.6266      2.00000
      5      -4.5005      2.00000
      6      -4.5005      2.00000
      7      -4.3901      2.00000
      8      -4.3901      2.00000
      9      -4.2450      2.00000
     10      -4.2450      2.00000
     11      -4.1007      2.00000
     12      -4.1007      2.00000
     13      -3.0792      2.00000
     14      -3.0792      2.00000
     15      -0.0467      2.00000
     16      -0.0467      2.00000
     17      -0.0188      2.00000
     18      -0.0188      2.00000
     19       4.8741      0.00000
     20       4.8741      0.00000
     21       6.6358      0.00000
     22       6.6358      0.00000
     23      10.0432      0.00000
     24      10.0432      0.00000
     25      10.2006      0.00000
     26      10.2006      0.00000
     27      13.1979      0.00000
     28      13.1979      0.00000

 k-point    19 :       0.1667    0.1667    0.5000
  band No.  band energies     occupation 
      1     -10.5436      2.00000
      2     -10.5436      2.00000
      3      -4.6154      2.00000
      4      -4.6154      2.00000
      5      -4.5586      2.00000
      6      -4.5586      2.00000
      7      -4.5242      2.00000
      8      -4.5242      2.00000
      9      -4.2707      2.00000
     10      -4.2707      2.00000
     11      -4.2392      2.00000
     12      -4.2392      2.00000
     13      -1.9927      2.00000
     14      -1.9927      2.00000
     15      -0.1051      2.00000
     16      -0.1051      2.00000
     17       0.0954      2.00000
     18       0.0954      2.00000
     19       5.8403      0.00000
     20       5.8403      0.00000
     21       7.0594      0.00000
     22       7.0594      0.00000
     23       8.4006      0.00000
     24       8.4006      0.00000
     25       9.6294      0.00000
     26       9.6294      0.00000
     27      12.3072      0.00000
     28      12.3072      0.00000

 k-point    20 :       0.3333    0.1667    0.5000
  band No.  band energies     occupation 
      1     -10.3227      2.00000
      2     -10.3227      2.00000
      3      -4.5911      2.00000
      4      -4.5911      2.00000
      5      -4.5067      2.00000
      6      -4.5067      2.00000
      7      -4.4147      2.00000
      8      -4.4147      2.00000
      9      -4.2681      2.00000
     10      -4.2681      2.00000
     11      -4.1146      2.00000
     12      -4.1146      2.00000
     13      -2.8359      2.00000
     14      -2.8359      2.00000
     15      -0.6566      2.00000
     16      -0.6566      2.00000
     17       0.1137      2.00000
     18       0.1137      2.00000
     19       5.4905      0.00000
     20       5.4905      0.00000
     21       7.2238      0.00000
     22       7.2238      0.00000
     23       8.7884      0.00000
     24       8.7884      0.00000
     25      10.2333      0.00000
     26      10.2333      0.00000
     27      12.6987      0.00000
     28      12.6987      0.00000

 k-point    21 :       0.3333    0.3333    0.5000
  band No.  band energies     occupation 
      1     -10.2473      2.00000
      2     -10.2473      2.00000
      3      -4.5429      2.00000
      4      -4.5429      2.00000
      5      -4.5224      2.00000
      6      -4.5224      2.00000
      7      -4.3488      2.00000
      8      -4.3488      2.00000
      9      -4.3042      2.00000
     10      -4.3042      2.00000
     11      -4.0053      2.00000
     12      -4.0053      2.00000
     13      -2.9655      2.00000
     14      -2.9655      2.00000
     15      -1.2745      2.00000
     16      -1.2745      2.00000
     17       0.2112      2.00000
     18       0.2112      2.00000
     19       5.7268      0.00000
     20       5.7268      0.00000
     21       7.7477      0.00000
     22       7.7477      0.00000
     23       8.4665      0.00000
     24       8.4665      0.00000
     25      11.0618      0.00000
     26      11.0618      0.00000
     27      11.2976      0.00000
     28      11.2976      0.00000


--------------------------------------------------------------------------------------------------------


 soft charge-density along one line, spin component           1
         0         1         2         3         4         5         6         7         8         9
 total charge-density along one line

 pseudopotential strength for first ion, spin component:           1
-10.239  -0.000   0.000  -0.001   0.000 -10.579  -0.000   0.000
 -0.000 -10.240   0.000  -0.000  -0.001  -0.000 -10.580   0.000
  0.000   0.000 -10.238  -0.000   0.000   0.000   0.000 -10.578
 -0.001  -0.000  -0.000 -10.240  -0.000  -0.001  -0.000  -0.000
  0.000  -0.001   0.000  -0.000 -10.239   0.000  -0.001   0.000
-10.579  -0.000   0.000  -0.001   0.000 -10.845  -0.000   0.000
 -0.000 -10.580   0.000  -0.000  -0.001  -0.000 -10.846   0.000
  0.000   0.000 -10.578  -0.000   0.000   0.000   0.000 -10.844
 -0.001  -0.000  -0.000 -10.580  -0.000  -0.001  -0.000  -0.000
  0.000  -0.001   0.000  -0.000 -10.579   0.000  -0.001   0.000
 -0.000  -0.000  -0.000  -0.000  -0.000  -0.000  -0.000  -0.000
 -0.000  -0.000  -0.000  -0.000  -0.000  -0.000  -0.000  -0.000
 -0.000   0.002  -0.000  -0.000  -0.002  -0.000   0.001  -0.000
 -0.000  -0.000  -0.002  -0.000   0.000  -0.000  -0.000  -0.001
 -0.002  -0.000   0.000   0.002  -0.000  -0.001  -0.000   0.000
 -0.000   0.002  -0.000  -0.000  -0.002  -0.000   0.001  -0.000
 -0.000  -0.000  -0.002  -0.000   0.000  -0.000  -0.000  -0.001
 -0.002  -0.000   0.000   0.002  -0.000  -0.001  -0.000   0.000
 total augmentation occupancy for first ion, spin component:           1
  3.324   0.000  -0.000  -0.577   0.000  -1.292  -0.000   0.000   0.569  -0.000   0.000  -0.000   0.000   0.000  -0.475  -0.000
  0.000   2.911   0.000   0.000  -0.577  -0.000  -0.884  -0.000  -0.000   0.569  -0.000   0.000   0.338  -0.000   0.000  -0.048
 -0.000   0.000   3.719   0.000  -0.000   0.000  -0.000  -1.678  -0.000   0.000   0.015  -0.002   0.000  -0.572   0.000  -0.000
 -0.577   0.000   0.000   2.911  -0.000   0.569  -0.000  -0.000  -0.884   0.000  -0.000   0.000   0.000   0.000   0.338  -0.000
  0.000  -0.577  -0.000  -0.000   3.324   0.000   0.569   0.000   0.000  -1.292  -0.000  -0.000  -0.475   0.000  -0.000   0.068
 -1.292  -0.000   0.000   0.569  -0.000   1.254   0.000  -0.000  -0.562   0.000  -0.000   0.000  -0.000  -0.000   0.458   0.000
 -0.000  -0.884  -0.000  -0.000   0.569   0.000   0.851   0.000   0.000  -0.562   0.000  -0.000  -0.326   0.000  -0.000   0.054
  0.000  -0.000  -1.678  -0.000   0.000  -0.000   0.000   1.630   0.000  -0.000  -0.016   0.003  -0.000   0.551  -0.000   0.000
  0.569  -0.000  -0.000  -0.884   0.000  -0.562   0.000   0.000   0.851  -0.000   0.000   0.000  -0.000  -0.000  -0.326   0.000
 -0.000   0.569   0.000   0.000  -1.292   0.000  -0.562  -0.000  -0.000   1.254   0.000  -0.000   0.458  -0.000   0.000  -0.076
  0.000  -0.000   0.015  -0.000  -0.000  -0.000  -0.000  -0.016   0.000   0.000   2.252  -0.490  -0.000  -0.004   0.000  -0.000
 -0.000   0.000  -0.002  -0.000   0.000   0.000  -0.000   0.003   0.000   0.000  -0.490   0.129   0.000   0.001   0.000  -0.000
  0.000   0.338   0.000   0.000  -0.475  -0.000  -0.326  -0.000  -0.000   0.458   0.000   0.000   0.307  -0.000   0.000  -0.051
  0.000  -0.000  -0.572   0.000   0.000  -0.000   0.000   0.551  -0.000  -0.000  -0.004   0.001   0.000   0.303   0.000  -0.000
 -0.475   0.000   0.000   0.338  -0.000   0.458  -0.000  -0.000  -0.326   0.000   0.000   0.000   0.000   0.000   0.307  -0.000
 -0.000  -0.048  -0.000  -0.000   0.068   0.000   0.054   0.000   0.000  -0.076   0.000   0.000  -0.051  -0.000  -0.000   0.010
 -0.000  -0.000   0.081   0.000  -0.000   0.000  -0.000  -0.092   0.000   0.000   0.001  -0.000  -0.000  -0.051  -0.000   0.000
  0.068  -0.000  -0.000  -0.048   0.000  -0.076   0.000   0.000   0.054  -0.000   0.000   0.000  -0.000  -0.000  -0.051   0.000


------------------------ aborting loop because EDIFF is reached ----------------------------------------


    CHARGE:  cpu time      0.2578: real time      0.2596
    FORLOC:  cpu time      0.0076: real time      0.0087
    FORNL :  cpu time      0.0729: real time      0.0653
    STRESS:  cpu time      0.6000: real time      0.5858
    FORCOR:  cpu time      0.1051: real time      0.1118
    FORHAR:  cpu time      0.0318: real time      0.0335
    MIXING:  cpu time      0.0056: real time      0.0067
    OFIELD:  cpu time      0.0000: real time      0.0000

  FORCE on cell =-STRESS in cart. coord.  units (eV):
  Direction    XX          YY          ZZ          XY          YZ          ZX
  --------------------------------------------------------------------------------------
  Alpha Z   131.64172   131.64172   131.64172
  Ewald    -819.68943  -819.68943  -794.56555    -0.00000    -0.00000    -0.00000
  Hartree   464.29600   464.29600   483.55022    -0.00000     0.00000    -0.00000
  E(xc)    -186.64978  -186.64978  -186.61974     0.00000     0.00000    -0.00000
  Local     -16.00060   -16.00023   -60.30017     0.00000    -0.00000    -0.00000
  n-local    75.43194    80.23773    77.71953     2.60861     0.16485    -0.54750
  augment    45.84973    45.84942    45.91439    -0.00000     0.00000    -0.00000
  Kinetic   296.60833   305.00897   300.68421     5.65701     0.36852    -0.93826
  Fock        0.00000     0.00000     0.00000     0.00000     0.00000     0.00000
  -------------------------------------------------------------------------------------
  Total      -1.90886    -1.90886    -1.97540     0.00000     0.00000     0.00000
  in kB     -35.60348   -35.60348   -36.84453     0.00000     0.00000     0.00000
  external pressure =      -36.02 kB  Pullay stress =        0.00 kB


 VOLUME and BASIS-vectors are now :
 -----------------------------------------------------------------------------
  energy-cutoff  :      520.00
  volume of cell :       85.90
      direct lattice vectors                 reciprocal lattice vectors
     1.962808776 -3.399684525  0.000000000     0.254736990 -0.147072470  0.000000000
     1.962808776  3.399684525  0.000000000     0.254736990  0.147072470 -0.000000000
     0.000000000  0.000000000  6.436433839    -0.000000000  0.000000000  0.155365537

  length of vectors
     3.925617551  3.925617551  6.436433839     0.294144940  0.294144940  0.155365537


 FORCES acting on ions
    electron-ion (+dipol)            ewald-force                    non-local-force                 convergence-correction
 -----------------------------------------------------------------------------------------------
   -.107E-06 0.636E-07 -.418E+01   0.666E-13 0.485E-11 0.409E+01   -.889E-17 0.683E-18 0.938E-01   -.454E-13 -.307E-10 -.927E-05
   -.107E-06 -.636E-07 -.418E+01   -.838E-13 -.485E-11 0.409E+01   -.224E-17 0.206E-16 0.938E-01   0.777E-13 0.306E-10 -.927E-05
   -.376E-06 0.257E-06 0.403E+01   0.867E-13 0.451E-11 -.409E+01   -.367E-16 0.289E-16 0.586E-01   0.598E-14 0.352E-10 -.464E-04
   -.376E-06 -.257E-06 0.403E+01   -.614E-13 -.451E-11 -.409E+01   0.181E-16 -.106E-16 0.586E-01   -.304E-13 -.352E-10 -.464E-04
 -----------------------------------------------------------------------------------------------
   -.966E-06 -.898E-11 -.305E+00   0.804E-14 -.312E-14 0.000E+00   -.297E-16 0.396E-16 0.305E+00   0.784E-14 -.763E-13 -.111E-03


 POSITION                                       TOTAL-FORCE (eV/Angst)
 -----------------------------------------------------------------------------------
      1.96281      1.13323      0.00033        -0.000000      0.000000      0.000020
      1.96281     -1.13323      3.21855        -0.000000      0.000000      0.000020
      1.96281      1.13323      2.41333         0.000000      0.000000     -0.000020
      1.96281     -1.13323      5.63155        -0.000000     -0.000000     -0.000020
 -----------------------------------------------------------------------------------
    total drift:                               -0.000001     -0.000000     -0.000585


--------------------------------------------------------------------------------------------------------



  FREE ENERGIE OF THE ION-ELECTRON SYSTEM (eV)
  ---------------------------------------------------
  free  energy   TOTEN  =       -13.63069330 eV

  energy  without entropy=      -13.63069330  energy(sigma->0) =      -13.63069330

 d Force = 0.1063454E-04[-0.642E-07, 0.213E-04]  d Energy = 0.1084471E-04-0.210E-06
 d Force =-0.1275801E-01[-0.130E-01,-0.125E-01]  d Ewald  =-0.1275826E-01 0.253E-06


--------------------------------------------------------------------------------------------------------


    POTLOK:  cpu time      0.1559: real time      0.1396


--------------------------------------------------------------------------------------------------------


 Quasi-Newton relaxation of ions (Broydens 2nd method)
  g(Force)  = 0.783E-10   g(Stress)= 0.000E+00

 retain information from N=  1 steps
 eigenvalues of (default step * inverse Hessian matrix)
  average eigenvalue of G=   2.4561
 eigenvalue spectrum of G is  2.4561


--------------------------------------------------------------------------------------------------------


  
 reached required accuracy - stopping structural energy minimisation
 writing wavefunctions
     LOOP+:  cpu time     71.8751: real time     72.5910
    4ORBIT:  cpu time      0.0000: real time      0.0000

 total amount of memory used by VASP MPI-rank0    50661. kBytes
=======================================================================

   base      :      30000. kBytes
   nonl-proj :      14460. kBytes
   fftplans  :       1133. kBytes
   grid      :       3379. kBytes
   one-center:         62. kBytes
   wavefun   :       1627. kBytes

  
  
 General timing and accounting informations for this job:
 ========================================================
  
                  Total CPU time used (sec):      292.549
                            User time (sec):      186.290
                          System time (sec):      106.259
                         Elapsed time (sec):     1330.776
  
                   Maximum memory used (kb):    78315520.
                   Average memory used (kb):          N/A
  
                          Minor page faults:        12007
                          Major page faults:          156
                 Voluntary context switches:           21
