nqpoint: 255    
npath: 5      
segment_nqpoint:
- 51
- 51
- 51
- 51
- 51
labels:
- [ '$Gamma$', 'A' ]
- [ 'A', 'H' ]
- [ 'H', 'K' ]
- [ 'K', 'L' ]
- [ 'L', 'M' ]
reciprocal_lattice:
- [   0.27065805,  -0.15626450,   0.00000000 ] # a*
- [   0.27065805,   0.15626450,   0.00000000 ] # b*
- [   0.00000000,   0.00000000,   0.16507588 ] # c*
natom: 4      
lattice:
- [     1.847349435817407,    -3.199703082169449,     0.000000000000000 ] # a
- [     1.847349435817407,     3.199703082169449,     0.000000000000000 ] # b
- [     0.000000000000000,     0.000000000000000,     6.057820083721611 ] # c
points:
- symbol: Zn # 1
  coordinates: [  0.333333333333336,  0.666666666666664,  0.000549405094592 ]
  mass: 65.380000
- symbol: Zn # 2
  coordinates: [  0.666666666666664,  0.333333333333336,  0.500549405094592 ]
  mass: 65.380000
- symbol: S # 3
  coordinates: [  0.333333333333336,  0.666666666666664,  0.374450594905408 ]
  mass: 32.065000
- symbol: S # 4
  coordinates: [  0.666666666666664,  0.333333333333336,  0.874450594905408 ]
  mass: 32.065000

phonon:
- q-position: [    0.0000000,    0.0000000,    0.0000000 ]
  distance:    0.0000000
  band:
  - # 1
    frequency:   -0.0000000835
  - # 2
    frequency:    0.0000001703
  - # 3
    frequency:    0.0000001965
  - # 4
    frequency:    1.6791826641
  - # 5
    frequency:    1.6791826641
  - # 6
    frequency:    6.3266225097
  - # 7
    frequency:    9.6954033407
  - # 8
    frequency:    9.6996749168
  - # 9
    frequency:    9.6996749168
  - # 10
    frequency:   10.0068773317
  - # 11
    frequency:   10.0068773317
  - # 12
    frequency:   11.4731595659

- q-position: [    0.0000000,    0.0000000,    0.0100000 ]
  distance:    0.0016508
  band:
  - # 1
    frequency:    0.0384804624
  - # 2
    frequency:    0.0384804624
  - # 3
    frequency:    0.1162008502
  - # 4
    frequency:    1.6792003992
  - # 5
    frequency:    1.6792003992
  - # 6
    frequency:    6.3258523013
  - # 7
    frequency:    9.6966195602
  - # 8
    frequency:    9.6997245673
  - # 9
    frequency:    9.6997245673
  - # 10
    frequency:   10.0067776903
  - # 11
    frequency:   10.0067776903
  - # 12
    frequency:   11.4735305457

- q-position: [    0.0000000,    0.0000000,    0.0200000 ]
  distance:    0.0033015
  band:
  - # 1
    frequency:    0.0769360953
  - # 2
    frequency:    0.0769360953
  - # 3
    frequency:    0.2323339055
  - # 4
    frequency:    1.6792529602
  - # 5
    frequency:    1.6792529602
  - # 6
    frequency:    6.3235434073
  - # 7
    frequency:    9.6998735511
  - # 8
    frequency:    9.6998735511
  - # 9
    frequency:    9.7002643064
  - # 10
    frequency:   10.0064789258
  - # 11
    frequency:   10.0064789258
  - # 12
    frequency:   11.4746398898

- q-position: [    0.0000000,    0.0000000,    0.0300000 ]
  distance:    0.0049523
  band:
  - # 1
    frequency:    0.1153420983
  - # 2
    frequency:    0.1153420983
  - # 3
    frequency:    0.3483315380
  - # 4
    frequency:    1.6793384170
  - # 5
    frequency:    1.6793384170
  - # 6
    frequency:    6.3197009931
  - # 7
    frequency:    9.7001219647
  - # 8
    frequency:    9.7001219647
  - # 9
    frequency:    9.7063258633
  - # 10
    frequency:   10.0059815171
  - # 11
    frequency:   10.0059815171
  - # 12
    frequency:   11.4764768462

- q-position: [    0.0000000,    0.0000000,    0.0400000 ]
  distance:    0.0066030
  band:
  - # 1
    frequency:    0.1536737302
  - # 2
    frequency:    0.1536737302
  - # 3
    frequency:    0.4641264526
  - # 4
    frequency:    1.6794535630
  - # 5
    frequency:    1.6794535630
  - # 6
    frequency:    6.3143335748
  - # 7
    frequency:    9.7004699677
  - # 8
    frequency:    9.7004699677
  - # 9
    frequency:    9.7147847766
  - # 10
    frequency:   10.0052862612
  - # 11
    frequency:   10.0052862612
  - # 12
    frequency:   11.4790236071

- q-position: [    0.0000000,    0.0000000,    0.0500000 ]
  distance:    0.0082538
  band:
  - # 1
    frequency:    0.1919063374
  - # 2
    frequency:    0.1919063374
  - # 3
    frequency:    0.5796518512
  - # 4
    frequency:    1.6795939287
  - # 5
    frequency:    1.6795939287
  - # 6
    frequency:    6.3074528808
  - # 7
    frequency:    9.7009177808
  - # 8
    frequency:    9.7009177808
  - # 9
    frequency:    9.7256139607
  - # 10
    frequency:   10.0043942717
  - # 11
    frequency:   10.0043942717
  - # 12
    frequency:   11.4822554743

- q-position: [    0.0000000,    0.0000000,    0.0600000 ]
  distance:    0.0099046
  band:
  - # 1
    frequency:    0.2300153841
  - # 2
    frequency:    0.2300153841
  - # 3
    frequency:    0.6948415935
  - # 4
    frequency:    1.6797538027
  - # 5
    frequency:    1.6797538027
  - # 6
    frequency:    6.2990736648
  - # 7
    frequency:    9.7014656840
  - # 8
    frequency:    9.7014656840
  - # 9
    frequency:    9.7387788467
  - # 10
    frequency:   10.0033069764
  - # 11
    frequency:   10.0033069764
  - # 12
    frequency:   11.4861410870

- q-position: [    0.0000000,    0.0000000,    0.0700000 ]
  distance:    0.0115553
  band:
  - # 1
    frequency:    0.2679764811
  - # 2
    frequency:    0.2679764811
  - # 3
    frequency:    0.8096303543
  - # 4
    frequency:    1.6799262567
  - # 5
    frequency:    1.6799262567
  - # 6
    frequency:    6.2892134719
  - # 7
    frequency:    9.7021140126
  - # 8
    frequency:    9.7021140126
  - # 9
    frequency:    9.7542375711
  - # 10
    frequency:   10.0020261150
  - # 11
    frequency:   10.0020261150
  - # 12
    frequency:   11.4906427057

- q-position: [    0.0000000,    0.0000000,    0.0800000 ]
  distance:    0.0132061
  band:
  - # 1
    frequency:    0.3057654154
  - # 2
    frequency:    0.3057654154
  - # 3
    frequency:    0.9239537760
  - # 4
    frequency:    1.6801031768
  - # 5
    frequency:    1.6801031768
  - # 6
    frequency:    6.2778923648
  - # 7
    frequency:    9.7028631538
  - # 8
    frequency:    9.7028631538
  - # 9
    frequency:    9.7719412006
  - # 10
    frequency:   10.0005537348
  - # 11
    frequency:   10.0005537348
  - # 12
    frequency:   11.4957165486

- q-position: [    0.0000000,    0.0000000,    0.0900000 ]
  distance:    0.0148568
  band:
  - # 1
    frequency:    0.3433581791
  - # 2
    frequency:    0.3433581791
  - # 3
    frequency:    1.0377486156
  - # 4
    frequency:    1.6802752988
  - # 5
    frequency:    1.6802752988
  - # 6
    frequency:    6.2651326158
  - # 7
    frequency:    9.7037135421
  - # 8
    frequency:    9.7037135421
  - # 9
    frequency:    9.7918339938
  - # 10
    frequency:    9.9988921870
  - # 11
    frequency:    9.9988921870
  - # 12
    frequency:   11.5013131727

- q-position: [    0.0000000,    0.0000000,    0.1000000 ]
  distance:    0.0165076
  band:
  - # 1
    frequency:    0.3807309993
  - # 2
    frequency:    0.3807309993
  - # 3
    frequency:    1.1509528856
  - # 4
    frequency:    1.6804322492
  - # 5
    frequency:    1.6804322492
  - # 6
    frequency:    6.2509583725
  - # 7
    frequency:    9.7046656542
  - # 8
    frequency:    9.7046656542
  - # 9
    frequency:    9.8138536940
  - # 10
    frequency:    9.9970441222
  - # 11
    frequency:    9.9970441222
  - # 12
    frequency:   11.5073778941

- q-position: [    0.0000000,    0.0000000,    0.1100000 ]
  distance:    0.0181583
  band:
  - # 1
    frequency:    0.4178603664
  - # 2
    frequency:    0.4178603664
  - # 3
    frequency:    1.2635059878
  - # 4
    frequency:    1.6805625898
  - # 5
    frequency:    1.6805625898
  - # 6
    frequency:    6.2353953022
  - # 7
    frequency:    9.7057200029
  - # 8
    frequency:    9.7057200029
  - # 9
    frequency:    9.8379318526
  - # 10
    frequency:    9.9950124844
  - # 11
    frequency:    9.9950124844
  - # 12
    frequency:   11.5138512396

- q-position: [    0.0000000,    0.0000000,    0.1200000 ]
  distance:    0.0198091
  band:
  - # 1
    frequency:    0.4547230642
  - # 2
    frequency:    0.4547230642
  - # 3
    frequency:    1.3753488400
  - # 4
    frequency:    1.6806538663
  - # 5
    frequency:    1.6806538663
  - # 6
    frequency:    6.2184702244
  - # 7
    frequency:    9.7068771312
  - # 8
    frequency:    9.7068771312
  - # 9
    frequency:    9.8639941789
  - # 10
    frequency:    9.9928005055
  - # 11
    frequency:    9.9928005055
  - # 12
    frequency:   11.5206694221

- q-position: [    0.0000000,    0.0000000,    0.1300000 ]
  distance:    0.0214599
  band:
  - # 1
    frequency:    0.4912961979
  - # 2
    frequency:    0.4912961979
  - # 3
    frequency:    1.4864239948
  - # 4
    frequency:    1.6806926614
  - # 5
    frequency:    1.6806926614
  - # 6
    frequency:    6.2002107370
  - # 7
    frequency:    9.7081376046
  - # 8
    frequency:    9.7081376046
  - # 9
    frequency:    9.8919609125
  - # 10
    frequency:    9.9904116983
  - # 11
    frequency:    9.9904116983
  - # 12
    frequency:   11.5277648344

- q-position: [    0.0000000,    0.0000000,    0.1400000 ]
  distance:    0.0231106
  band:
  - # 1
    frequency:    0.5275572239
  - # 2
    frequency:    0.5275572239
  - # 3
    frequency:    1.5966757497
  - # 4
    frequency:    1.6806646501
  - # 5
    frequency:    1.6806646501
  - # 6
    frequency:    6.1806448438
  - # 7
    frequency:    9.7095020043
  - # 8
    frequency:    9.7095020043
  - # 9
    frequency:    9.9217472164
  - # 10
    frequency:    9.9878498497
  - # 11
    frequency:    9.9878498497
  - # 12
    frequency:   11.5350665527

- q-position: [    0.0000000,    0.0000000,    0.1500000 ]
  distance:    0.0247614
  band:
  - # 1
    frequency:    0.5634839783
  - # 2
    frequency:    0.5634839783
  - # 3
    frequency:    1.6805546586
  - # 4
    frequency:    1.6805546586
  - # 5
    frequency:    1.7060502497
  - # 6
    frequency:    6.1598005891
  - # 7
    frequency:    9.7109709187
  - # 8
    frequency:    9.7109709187
  - # 9
    frequency:    9.9532635858
  - # 10
    frequency:    9.9851190123
  - # 11
    frequency:    9.9851190123
  - # 12
    frequency:   11.5425008440

- q-position: [    0.0000000,    0.0000000,    0.1600000 ]
  distance:    0.0264121
  band:
  - # 1
    frequency:    0.5990547053
  - # 2
    frequency:    0.5990547053
  - # 3
    frequency:    1.6803467249
  - # 4
    frequency:    1.6803467249
  - # 5
    frequency:    1.8144955801
  - # 6
    frequency:    6.1377057053
  - # 7
    frequency:    9.7125449349
  - # 8
    frequency:    9.7125449349
  - # 9
    frequency:    9.9822234966
  - # 10
    frequency:    9.9822234966
  - # 11
    frequency:    9.9864162704
  - # 12
    frequency:   11.5499916727

- q-position: [    0.0000000,    0.0000000,    0.1700000 ]
  distance:    0.0280629
  band:
  - # 1
    frequency:    0.6342480862
  - # 2
    frequency:    0.6342480862
  - # 3
    frequency:    1.6800241627
  - # 4
    frequency:    1.6800241627
  - # 5
    frequency:    1.9219618516
  - # 6
    frequency:    6.1143872777
  - # 7
    frequency:    9.7142246297
  - # 8
    frequency:    9.7142246297
  - # 9
    frequency:    9.9791678612
  - # 10
    frequency:    9.9791678612
  - # 11
    frequency:   10.0211077058
  - # 12
    frequency:   11.5574611997

- q-position: [    0.0000000,    0.0000000,    0.1800000 ]
  distance:    0.0297137
  band:
  - # 1
    frequency:    0.6690432672
  - # 2
    frequency:    0.6690432672
  - # 3
    frequency:    1.6795696255
  - # 4
    frequency:    1.6795696255
  - # 5
    frequency:    2.0284012759
  - # 6
    frequency:    6.0898714326
  - # 7
    frequency:    9.7160105606
  - # 8
    frequency:    9.7160105606
  - # 9
    frequency:    9.9759569038
  - # 10
    frequency:    9.9759569038
  - # 11
    frequency:   10.0572369519
  - # 12
    frequency:   11.5648302711

- q-position: [    0.0000000,    0.0000000,    0.1900000 ]
  distance:    0.0313644
  band:
  - # 1
    frequency:    0.7034198878
  - # 2
    frequency:    0.7034198878
  - # 3
    frequency:    1.6789651732
  - # 4
    frequency:    1.6789651732
  - # 5
    frequency:    2.1337682326
  - # 6
    frequency:    6.0641830497
  - # 7
    frequency:    9.7179032553
  - # 8
    frequency:    9.7179032553
  - # 9
    frequency:    9.9725956508
  - # 10
    frequency:    9.9725956508
  - # 11
    frequency:   10.0947001340
  - # 12
    frequency:   11.5720188907

- q-position: [    0.0000000,    0.0000000,    0.2000000 ]
  distance:    0.0330152
  band:
  - # 1
    frequency:    0.7373581085
  - # 2
    frequency:    0.7373581085
  - # 3
    frequency:    1.6781923390
  - # 4
    frequency:    1.6781923390
  - # 5
    frequency:    2.2380193284
  - # 6
    frequency:    6.0373455033
  - # 7
    frequency:    9.7199032024
  - # 8
    frequency:    9.7199032024
  - # 9
    frequency:    9.9690893466
  - # 10
    frequency:    9.9690893466
  - # 11
    frequency:   10.1333908848
  - # 12
    frequency:   11.5789466765

- q-position: [    0.0000000,    0.0000000,    0.2100000 ]
  distance:    0.0346659
  band:
  - # 1
    frequency:    0.7708386383
  - # 2
    frequency:    0.7708386383
  - # 3
    frequency:    1.6772321968
  - # 4
    frequency:    1.6772321968
  - # 5
    frequency:    2.3411134466
  - # 6
    frequency:    6.0093804336
  - # 7
    frequency:    9.7220108404
  - # 8
    frequency:    9.7220108404
  - # 9
    frequency:    9.9654434420
  - # 10
    frequency:    9.9654434420
  - # 11
    frequency:   10.1732007831
  - # 12
    frequency:   11.5855332951

- q-position: [    0.0000000,    0.0000000,    0.2200000 ]
  distance:    0.0363167
  band:
  - # 1
    frequency:    0.8038427617
  - # 2
    frequency:    0.8038427617
  - # 3
    frequency:    1.6760654294
  - # 4
    frequency:    1.6760654294
  - # 5
    frequency:    2.4430117897
  - # 6
    frequency:    5.9803075492
  - # 7
    frequency:    9.7242265476
  - # 8
    frequency:    9.7242265476
  - # 9
    frequency:    9.9616635830
  - # 10
    frequency:    9.9616635830
  - # 11
    frequency:   10.2140197886
  - # 12
    frequency:   11.5916988753

- q-position: [    0.0000000,    0.0000000,    0.2300000 ]
  distance:    0.0379675
  band:
  - # 1
    frequency:    0.8363523653
  - # 2
    frequency:    0.8363523653
  - # 3
    frequency:    1.6746723961
  - # 4
    frequency:    1.6746723961
  - # 5
    frequency:    2.5436779130
  - # 6
    frequency:    5.9501444617
  - # 7
    frequency:    9.7265506311
  - # 8
    frequency:    9.7265506311
  - # 9
    frequency:    9.9577555981
  - # 10
    frequency:    9.9577555981
  - # 11
    frequency:   10.2557366686
  - # 12
    frequency:   11.5973643987

- q-position: [    0.0000000,    0.0000000,    0.2400000 ]
  distance:    0.0396182
  band:
  - # 1
    frequency:    0.8683499646
  - # 2
    frequency:    0.8683499646
  - # 3
    frequency:    1.6730332002
  - # 4
    frequency:    1.6730332002
  - # 5
    frequency:    2.6430777518
  - # 6
    frequency:    5.9189065520
  - # 7
    frequency:    9.7289833160
  - # 8
    frequency:    9.7289833160
  - # 9
    frequency:    9.9537254855
  - # 10
    frequency:    9.9537254855
  - # 11
    frequency:   10.2982394155
  - # 12
    frequency:   11.6024520663

- q-position: [    0.0000000,    0.0000000,    0.2500000 ]
  distance:    0.0412690
  band:
  - # 1
    frequency:    0.8998187291
  - # 2
    frequency:    0.8998187291
  - # 3
    frequency:    1.6711277557
  - # 4
    frequency:    1.6711277557
  - # 5
    frequency:    2.7411796399
  - # 6
    frequency:    5.8866068682
  - # 7
    frequency:    9.7315247346
  - # 8
    frequency:    9.7315247346
  - # 9
    frequency:    9.9495794004
  - # 10
    frequency:    9.9495794004
  - # 11
    frequency:   10.3414156538
  - # 12
    frequency:   11.6068856415

- q-position: [    0.0000000,    0.0000000,    0.2600000 ]
  distance:    0.0429197
  band:
  - # 1
    frequency:    0.9307425080
  - # 2
    frequency:    0.9307425080
  - # 3
    frequency:    1.6689358535
  - # 4
    frequency:    1.6689358535
  - # 5
    frequency:    2.8379543227
  - # 6
    frequency:    5.8532560549
  - # 7
    frequency:    9.7341749153
  - # 8
    frequency:    9.7341749153
  - # 9
    frequency:    9.9453236405
  - # 10
    frequency:    9.9453236405
  - # 11
    frequency:   10.3851530338
  - # 12
    frequency:   11.6105907696

- q-position: [    0.0000000,    0.0000000,    0.2700000 ]
  distance:    0.0445705
  band:
  - # 1
    frequency:    0.9611058545
  - # 2
    frequency:    0.9611058545
  - # 3
    frequency:    1.6664372259
  - # 4
    frequency:    1.6664372259
  - # 5
    frequency:    2.9333749623
  - # 6
    frequency:    5.8188623101
  - # 7
    frequency:    9.7369337721
  - # 8
    frequency:    9.7369337721
  - # 9
    frequency:    9.9409646330
  - # 10
    frequency:    9.9409646330
  - # 11
    frequency:   10.4293396110
  - # 12
    frequency:   11.6134952745

- q-position: [    0.0000000,    0.0000000,    0.2800000 ]
  distance:    0.0462212
  band:
  - # 1
    frequency:    0.9908940497
  - # 2
    frequency:    0.9908940497
  - # 3
    frequency:    1.6636116106
  - # 4
    frequency:    1.6636116106
  - # 5
    frequency:    3.0274171370
  - # 6
    frequency:    5.7834313718
  - # 7
    frequency:    9.7398010933
  - # 8
    frequency:    9.7398010933
  - # 9
    frequency:    9.9365089194
  - # 10
    frequency:    9.9365089194
  - # 11
    frequency:   10.4738642113
  - # 12
    frequency:   11.6155294327

- q-position: [    0.0000000,    0.0000000,    0.2900000 ]
  distance:    0.0478720
  band:
  - # 1
    frequency:    1.0200931260
  - # 2
    frequency:    1.0200931260
  - # 3
    frequency:    1.6604388125
  - # 4
    frequency:    1.6604388125
  - # 5
    frequency:    3.1200588346
  - # 6
    frequency:    5.7469665295
  - # 7
    frequency:    9.7427765316
  - # 8
    frequency:    9.7427765316
  - # 9
    frequency:    9.9319631415
  - # 10
    frequency:    9.9319631415
  - # 11
    frequency:   10.5186167792
  - # 12
    frequency:   11.6166262260

- q-position: [    0.0000000,    0.0000000,    0.3000000 ]
  distance:    0.0495228
  band:
  - # 1
    frequency:    1.0486898892
  - # 2
    frequency:    1.0486898892
  - # 3
    frequency:    1.6568987647
  - # 4
    frequency:    1.6568987647
  - # 5
    frequency:    3.2112804399
  - # 6
    frequency:    5.7094686604
  - # 7
    frequency:    9.7458595934
  - # 8
    frequency:    9.7458595934
  - # 9
    frequency:    9.9273340261
  - # 10
    frequency:    9.9273340261
  - # 11
    frequency:   10.5634887101
  - # 12
    frequency:   11.6167215745

- q-position: [    0.0000000,    0.0000000,    0.3100000 ]
  distance:    0.0511735
  band:
  - # 1
    frequency:    1.0766719402
  - # 2
    frequency:    1.0766719402
  - # 3
    frequency:    1.6529715866
  - # 4
    frequency:    1.6529715866
  - # 5
    frequency:    3.3010647163
  - # 6
    frequency:    5.6709362872
  - # 7
    frequency:    9.7490496291
  - # 8
    frequency:    9.7490496291
  - # 9
    frequency:    9.9226283696
  - # 10
    frequency:    9.9226283696
  - # 11
    frequency:   10.6083731648
  - # 12
    frequency:   11.6157545491

- q-position: [    0.0000000,    0.0000000,    0.3200000 ]
  distance:    0.0528243
  band:
  - # 1
    frequency:    1.1040276954
  - # 2
    frequency:    1.1040276954
  - # 3
    frequency:    1.6486376416
  - # 4
    frequency:    1.6486376416
  - # 5
    frequency:    3.3893967823
  - # 6
    frequency:    5.6313656568
  - # 7
    frequency:    9.7523458231
  - # 8
    frequency:    9.7523458231
  - # 9
    frequency:    9.9178530233
  - # 10
    frequency:    9.9178530233
  - # 11
    frequency:   10.6531653670
  - # 12
    frequency:   11.6136675675

- q-position: [    0.0000000,    0.0000000,    0.3300000 ]
  distance:    0.0544750
  band:
  - # 1
    frequency:    1.1307464063
  - # 2
    frequency:    1.1307464063
  - # 3
    frequency:    1.6438775919
  - # 4
    frequency:    1.6438775919
  - # 5
    frequency:    3.4762640832
  - # 6
    frequency:    5.5907508357
  - # 7
    frequency:    9.7557471849
  - # 8
    frequency:    9.7557471849
  - # 9
    frequency:    9.9130148775
  - # 10
    frequency:    9.9130148775
  - # 11
    frequency:   10.6977628828
  - # 12
    frequency:   11.6104065718

- q-position: [    0.0000000,    0.0000000,    0.3400000 ]
  distance:    0.0561258
  band:
  - # 1
    frequency:    1.1568181779
  - # 2
    frequency:    1.1568181779
  - # 3
    frequency:    1.6386724514
  - # 4
    frequency:    1.6386724514
  - # 5
    frequency:    3.5616563566
  - # 6
    frequency:    5.5490838230
  - # 7
    frequency:    9.7592525405
  - # 8
    frequency:    9.7592525405
  - # 9
    frequency:    9.9081208460
  - # 10
    frequency:    9.9081208460
  - # 11
    frequency:   10.7420658831
  - # 12
    frequency:   11.6059211916

- q-position: [    0.0000000,    0.0000000,    0.3500000 ]
  distance:    0.0577766
  band:
  - # 1
    frequency:    1.1822339864
  - # 2
    frequency:    1.1822339864
  - # 3
    frequency:    1.6330036367
  - # 4
    frequency:    1.6330036367
  - # 5
    frequency:    3.6455655936
  - # 6
    frequency:    5.5063546750
  - # 7
    frequency:    9.7628605239
  - # 8
    frequency:    9.7628605239
  - # 9
    frequency:    9.9031778504
  - # 10
    frequency:    9.9031778504
  - # 11
    frequency:   10.7859773880
  - # 12
    frequency:   11.6001648913

- q-position: [    0.0000000,    0.0000000,    0.3600000 ]
  distance:    0.0594273
  band:
  - # 1
    frequency:    1.2069856948
  - # 2
    frequency:    1.2069856948
  - # 3
    frequency:    1.6268530159
  - # 4
    frequency:    1.6268530159
  - # 5
    frequency:    3.7279859953
  - # 6
    frequency:    5.4625516437
  - # 7
    frequency:    9.7665695700
  - # 8
    frequency:    9.7665695700
  - # 9
    frequency:    9.8981928047
  - # 10
    frequency:    9.8981928047
  - # 11
    frequency:   10.8294034943
  - # 12
    frequency:   11.5930951044

- q-position: [    0.0000000,    0.0000000,    0.3700000 ]
  distance:    0.0610781
  band:
  - # 1
    frequency:    1.2310660680
  - # 2
    frequency:    1.2310660680
  - # 3
    frequency:    1.6202029554
  - # 4
    frequency:    1.6202029554
  - # 5
    frequency:    3.8089139232
  - # 6
    frequency:    5.4176613236
  - # 7
    frequency:    9.7703779072
  - # 8
    frequency:    9.7703779072
  - # 9
    frequency:    9.8931725999
  - # 10
    frequency:    9.8931725999
  - # 11
    frequency:   10.8722535859
  - # 12
    frequency:   11.5846733550

- q-position: [    0.0000000,    0.0000000,    0.3800000 ]
  distance:    0.0627288
  band:
  - # 1
    frequency:    1.2544687864
  - # 2
    frequency:    1.2544687864
  - # 3
    frequency:    1.6130363644
  - # 4
    frequency:    1.6130363644
  - # 5
    frequency:    3.8883478458
  - # 6
    frequency:    5.3716688076
  - # 7
    frequency:    9.7742835517
  - # 8
    frequency:    9.7742835517
  - # 9
    frequency:    9.8881240883
  - # 10
    frequency:    9.8881240883
  - # 11
    frequency:   10.9144405279
  - # 12
    frequency:   11.5748653674

- q-position: [    0.0000000,    0.0000000,    0.3900000 ]
  distance:    0.0643796
  band:
  - # 1
    frequency:    1.2771884579
  - # 2
    frequency:    1.2771884579
  - # 3
    frequency:    1.6053367365
  - # 4
    frequency:    1.6053367365
  - # 5
    frequency:    3.9662882791
  - # 6
    frequency:    5.3245578484
  - # 7
    frequency:    9.7782843018
  - # 8
    frequency:    9.7782843018
  - # 9
    frequency:    9.8830540687
  - # 10
    frequency:    9.8830540687
  - # 11
    frequency:   10.9558808447
  - # 12
    frequency:   11.5636411645

- q-position: [    0.0000000,    0.0000000,    0.4000000 ]
  distance:    0.0660304
  band:
  - # 1
    frequency:    1.2992206282
  - # 2
    frequency:    1.2992206282
  - # 3
    frequency:    1.5970881905
  - # 4
    frequency:    1.5970881905
  - # 5
    frequency:    4.0427377227
  - # 6
    frequency:    5.2763110251
  - # 7
    frequency:    9.7823777334
  - # 8
    frequency:    9.7823777334
  - # 9
    frequency:    9.8779692712
  - # 10
    frequency:    9.8779692712
  - # 11
    frequency:   10.9964948822
  - # 12
    frequency:   11.5509751558

- q-position: [    0.0000000,    0.0000000,    0.4100000 ]
  distance:    0.0676811
  band:
  - # 1
    frequency:    1.3205617906
  - # 2
    frequency:    1.3205617906
  - # 3
    frequency:    1.5882755074
  - # 4
    frequency:    1.5882755074
  - # 5
    frequency:    4.1177005902
  - # 6
    frequency:    5.2269099130
  - # 7
    frequency:    9.7865611960
  - # 8
    frequency:    9.7865611960
  - # 9
    frequency:    9.8728763429
  - # 10
    frequency:    9.8728763429
  - # 11
    frequency:   11.0362069558
  - # 12
    frequency:   11.5368462162

- q-position: [    0.0000000,    0.0000000,    0.4200000 ]
  distance:    0.0693319
  band:
  - # 1
    frequency:    1.3412093927
  - # 2
    frequency:    1.3412093927
  - # 3
    frequency:    1.5788841664
  - # 4
    frequency:    1.5788841664
  - # 5
    frequency:    4.1911831342
  - # 6
    frequency:    5.1763352552
  - # 7
    frequency:    9.7908318101
  - # 8
    frequency:    9.7908318101
  - # 9
    frequency:    9.8677818335
  - # 10
    frequency:    9.8677818335
  - # 11
    frequency:   11.0749454832
  - # 12
    frequency:   11.5212377550

- q-position: [    0.0000000,    0.0000000,    0.4300000 ]
  distance:    0.0709826
  band:
  - # 1
    frequency:    1.3611618426
  - # 2
    frequency:    1.3611618426
  - # 3
    frequency:    1.5689003776
  - # 4
    frequency:    1.5689003776
  - # 5
    frequency:    4.2631933657
  - # 6
    frequency:    5.1245671344
  - # 7
    frequency:    9.7951864650
  - # 8
    frequency:    9.7951864650
  - # 9
    frequency:    9.8626921816
  - # 10
    frequency:    9.8626921816
  - # 11
    frequency:   11.1126431042
  - # 12
    frequency:   11.5041377764

- q-position: [    0.0000000,    0.0000000,    0.4400000 ]
  distance:    0.0726334
  band:
  - # 1
    frequency:    1.3804185130
  - # 2
    frequency:    1.3804185130
  - # 3
    frequency:    1.5583111134
  - # 4
    frequency:    1.5583111134
  - # 5
    frequency:    4.3337409683
  - # 6
    frequency:    5.0715851451
  - # 7
    frequency:    9.7996218176
  - # 8
    frequency:    9.7996218176
  - # 9
    frequency:    9.8576137015
  - # 10
    frequency:    9.8576137015
  - # 11
    frequency:   11.1492367873
  - # 12
    frequency:   11.4855389313

- q-position: [    0.0000000,    0.0000000,    0.4500000 ]
  distance:    0.0742841
  band:
  - # 1
    frequency:    1.3989797434
  - # 2
    frequency:    1.3989797434
  - # 3
    frequency:    1.5471041366
  - # 4
    frequency:    1.5471041366
  - # 5
    frequency:    4.4028372062
  - # 6
    frequency:    5.0173685631
  - # 7
    frequency:    9.8041342926
  - # 8
    frequency:    9.8041342926
  - # 9
    frequency:    9.8525525702
  - # 10
    frequency:    9.8525525702
  - # 11
    frequency:   11.1846679228
  - # 12
    frequency:   11.4654385616

- q-position: [    0.0000000,    0.0000000,    0.4600000 ]
  distance:    0.0759349
  band:
  - # 1
    frequency:    1.4168468409
  - # 2
    frequency:    1.4168468409
  - # 3
    frequency:    1.5352680275
  - # 4
    frequency:    1.5352680275
  - # 5
    frequency:    4.4704948261
  - # 6
    frequency:    4.9618965137
  - # 7
    frequency:    9.8087200831
  - # 8
    frequency:    9.8087200831
  - # 9
    frequency:    9.8475148158
  - # 10
    frequency:    9.8475148158
  - # 11
    frequency:   11.2188824056
  - # 12
    frequency:   11.4438387353

- q-position: [    0.0000000,    0.0000000,    0.4700000 ]
  distance:    0.0775857
  band:
  - # 1
    frequency:    1.4340220782
  - # 2
    frequency:    1.4340220782
  - # 3
    frequency:    1.5227922077
  - # 4
    frequency:    1.5227922077
  - # 5
    frequency:    4.5367279535
  - # 6
    frequency:    4.9051481358
  - # 7
    frequency:    9.8133751522
  - # 8
    frequency:    9.8133751522
  - # 9
    frequency:    9.8425063054
  - # 10
    frequency:    9.8425063054
  - # 11
    frequency:   11.2518307049
  - # 12
    frequency:   11.4207462750

- q-position: [    0.0000000,    0.0000000,    0.4800000 ]
  distance:    0.0792364
  band:
  - # 1
    frequency:    1.4505086912
  - # 2
    frequency:    1.4505086912
  - # 3
    frequency:    1.5096669621
  - # 4
    frequency:    1.5096669621
  - # 5
    frequency:    4.6015519829
  - # 6
    frequency:    4.8471027426
  - # 7
    frequency:    9.8180952362
  - # 8
    frequency:    9.8180952362
  - # 9
    frequency:    9.8375327351
  - # 10
    frequency:    9.8375327351
  - # 11
    frequency:   11.2834679246
  - # 12
    frequency:   11.3961727778

- q-position: [    0.0000000,    0.0000000,    0.4900000 ]
  distance:    0.0808872
  band:
  - # 1
    frequency:    1.4663108731
  - # 2
    frequency:    1.4663108731
  - # 3
    frequency:    1.4958834590
  - # 4
    frequency:    1.4958834590
  - # 5
    frequency:    4.6649834614
  - # 6
    frequency:    4.7877399777
  - # 7
    frequency:    9.8228758480
  - # 8
    frequency:    9.8228758480
  - # 9
    frequency:    9.8325996193
  - # 10
    frequency:    9.8325996193
  - # 11
    frequency:   11.3137538522
  - # 12
    frequency:   11.3701346274

- q-position: [    0.0000000,    0.0000000,    0.5000000 ]
  distance:    0.0825379
  band:
  - # 1
    frequency:    1.4814337675
  - # 2
    frequency:    1.4814337675
  - # 3
    frequency:    1.4814337675
  - # 4
    frequency:    1.4814337675
  - # 5
    frequency:    4.7270399664
  - # 6
    frequency:    4.7270399664
  - # 7
    frequency:    9.8277122819
  - # 8
    frequency:    9.8277122819
  - # 9
    frequency:    9.8277122819
  - # 10
    frequency:    9.8277122819
  - # 11
    frequency:   11.3426529984
  - # 12
    frequency:   11.3426529984

- q-position: [    0.0000000,    0.0000000,    0.5000000 ]
  distance:    0.0825379
  band:
  - # 1
    frequency:    1.4814337675
  - # 2
    frequency:    1.4814337675