72   
4    

1    
  0.0033749968256213  -0.0058456659773597   0.0073781830899067
  -0.0303949600    0.0542331800   -0.0718339700
   0.0014546400   -0.0030690200   -0.0013581900
   0.0003190800   -0.0057496000   -0.0029789100
  -0.0008883500   -0.0018131000   -0.0014320400
   0.0002373100    0.0027102900   -0.0028889100
   0.0004338500   -0.0007676200   -0.0012188700
  -0.0020137900   -0.0014413900   -0.0006215300
   0.0004340400   -0.0007661300   -0.0012210100
   0.0040171200    0.0038726900   -0.0036956100
   0.0000795400   -0.0001518400    0.0016121700
   0.0003056400   -0.0001640100   -0.0002879700
   0.0001568200    0.0006292800    0.0004058300
  -0.0001751900    0.0004489600   -0.0000245600
   0.0004445100   -0.0002802900    0.0001406700
   0.0000382900   -0.0000828200   -0.0000854700
  -0.0003254100   -0.0000772200   -0.0003718200
   0.0000376800   -0.0000818700   -0.0000797300
  -0.0005451800   -0.0004134500    0.0004888900
   0.0000650900   -0.0045229200    0.0028717400
  -0.0000783200   -0.0008308500   -0.0001118500
  -0.0053027000    0.0029882800    0.0000107400
   0.0046584900    0.0025389900    0.0014390800
   0.0006065900    0.0000420800   -0.0001038000
  -0.0003362200    0.0001758500   -0.0003135700
   0.0004165400   -0.0006307900   -0.0000939200
   0.0003409700    0.0002942400   -0.0001277000
  -0.0006296200    0.0004175100   -0.0002058800
   0.0000707300    0.0025691100   -0.0027682000
   0.0003597600   -0.0005763100   -0.0001102600
   0.0008241600   -0.0005519200    0.0056259800
  -0.0014722400   -0.0010070300    0.0014299800
   0.0002019300    0.0002761300   -0.0004823800
  -0.0003363100   -0.0002915400    0.0000571200
  -0.0000212000   -0.0003781200   -0.0004947400
   0.0003410700   -0.0002124200    0.0002752400
  -0.0002251100    0.0006511200   -0.0002130600
   0.0004826400   -0.0008202100    0.0491150900
  -0.0005264100    0.0010760600    0.0002718000
   0.0005030700    0.0000115200    0.0014871600
  -0.0003848400   -0.0004430100    0.0009014400
  -0.0008498700   -0.0004105600    0.0008678200
  -0.0000440200    0.0000785900    0.0006782100
   0.0005833400    0.0008778300    0.0002955400
  -0.0001316500    0.0002149200    0.0006888300
   0.0003730100   -0.0005921600    0.0014754000
   0.0003291500   -0.0005808800   -0.0006986000
  -0.0004885300    0.0001683600    0.0009229200
  -0.0000635500    0.0004260600   -0.0007011100
   0.0002318200   -0.0000801100    0.0003241200
  -0.0000311200   -0.0000664700   -0.0001095700
  -0.0000205000    0.0000341500    0.0002504600
   0.0006010300    0.0000580000    0.0011419200
  -0.0001224100    0.0002086000    0.0001953100
  -0.0003623300   -0.0003128500   -0.0009192800
  -0.0000455700    0.0003754500   -0.0006690100
  -0.0001213200    0.0001935800    0.0002723400
   0.0010581600   -0.0005704100   -0.0013525600
  -0.0007271400   -0.0003247500   -0.0010077700
  -0.0002101000   -0.0000446300    0.0003046700
   0.0001416200   -0.0000693100    0.0003211900
  -0.0000251000    0.0001373500    0.0003249000
  -0.0001196500    0.0000865200    0.0002175200
   0.0002341600   -0.0001921900    0.0003117200
   0.0001144200   -0.0179208100   -0.0053812500
  -0.0006566000    0.0016442300    0.0007578800
   0.0409460100   -0.0238913500    0.0180472800
  -0.0130515700   -0.0079196400    0.0065529800
  -0.0004168300   -0.0001277400    0.0008140500
   0.0003064400    0.0010469300    0.0007662200
   0.0002973100    0.0008311100    0.0005940600
  -0.0008815900   -0.0003565100    0.0009149500
  -0.0000207000   -0.0007331100    0.0007898800

1    
 -0.0033749968256213   0.0058456659773597  -0.0073781830899067
   0.0328168100   -0.0552307200    0.0704406600
  -0.0014569100    0.0030268900    0.0003929000
  -0.0003434900    0.0057390500    0.0020142600
   0.0008882200    0.0017925200    0.0004801300
  -0.0002361600   -0.0027372100    0.0019308500
  -0.0004397600    0.0007500500    0.0002644800
   0.0020112600    0.0014204000   -0.0003337500
  -0.0004396200    0.0007469300    0.0002634200
  -0.0040230800   -0.0038979900    0.0027422700
  -0.0000822000    0.0001290100   -0.0025764200
  -0.0003134900    0.0001439900   -0.0006645700
  -0.0001623300   -0.0006475300   -0.0013564900
   0.0001708600   -0.0004720400   -0.0009273900
  -0.0004540000    0.0002586900   -0.0010938100
  -0.0000453800    0.0000631100   -0.0008670200
   0.0003223600    0.0000557700   -0.0005806000
  -0.0000450400    0.0000627800   -0.0008670300
   0.0005385600    0.0003913900   -0.0014420400
  -0.0000756900    0.0045406100   -0.0037821700
   0.0000689500    0.0008460200   -0.0008411800
   0.0052881400   -0.0029651800   -0.0009672500
  -0.0046664800   -0.0025169800   -0.0023759700
  -0.0006125300   -0.0000223600   -0.0008427400
   0.0003315600   -0.0001568900   -0.0006388800
  -0.0004220100    0.0006486100   -0.0008580800
  -0.0003465700   -0.0002724500   -0.0008255500
   0.0006248700   -0.0003974400   -0.0007423600
  -0.0000700400   -0.0025538800    0.0018171700
  -0.0003654500    0.0005958300   -0.0008398500
  -0.0008701800    0.0005927200   -0.0065938100
   0.0014873300    0.0010292400   -0.0023873800
  -0.0002072800   -0.0002582200   -0.0004718700
   0.0003305800    0.0003130600   -0.0010113300
   0.0000148500    0.0003968000   -0.0004574800
  -0.0003460600    0.0002314200   -0.0012212900
   0.0002171600   -0.0006322100   -0.0007405700
  -0.0006086000    0.0010539700   -0.0465246800
   0.0005092400   -0.0010627100    0.0006491700
  -0.0005052400   -0.0000170600   -0.0005592900
   0.0003806100    0.0004535900    0.0000343800
   0.0008479600    0.0004241600    0.0000598900
   0.0000448000   -0.0000726600    0.0002520900
  -0.0005854400   -0.0008681500    0.0006370900
   0.0001197500   -0.0002110000    0.0002475800
  -0.0003714200    0.0006036100   -0.0005282800
  -0.0003344600    0.0005828400    0.0016214200
   0.0004772900   -0.0001564700    0.0000073300
   0.0000675900   -0.0004137900    0.0016297600
  -0.0002454700    0.0000886400    0.0006065600
   0.0000336100    0.0000785700    0.0010454000
   0.0000158300   -0.0000335400    0.0006834100
  -0.0006018500   -0.0000465200   -0.0002023600
   0.0001145800   -0.0002139700    0.0007425300
   0.0003468000    0.0003217900    0.0018484400
   0.0000415800   -0.0003878400    0.0016064400
   0.0001192600   -0.0001985100    0.0006579100
  -0.0010638000    0.0005604700    0.0022768100
   0.0007222200    0.0003212500    0.0019503500
   0.0002049000    0.0000351900    0.0006298500
  -0.0001451900    0.0000607200    0.0006083000
   0.0000116800   -0.0001477500    0.0006061400
   0.0001166900   -0.0001009000    0.0007107300
  -0.0002435800    0.0001879200    0.0006181300
  -0.0001656900    0.0179994600    0.0061848600
   0.0006572200   -0.0016364300    0.0001782700
  -0.0427052800    0.0247344200   -0.0175845700
   0.0130024800    0.0077647300   -0.0054827700
   0.0004084000    0.0001150500    0.0001196300
  -0.0003189100   -0.0010574900    0.0001582000
  -0.0003063300   -0.0008346200    0.0003335800
   0.0008573500    0.0003478000    0.0000020100
   0.0000136300    0.0007114500    0.0001364100

37   
  0.0033749968256213  -0.0058456659773597   0.0073781830899067
   0.0006101600   -0.0010866200    0.0465048500
   0.0003047800   -0.0000486100    0.0005828600
  -0.0001563700    0.0012158800   -0.0007215100
   0.0002129200    0.0007279200   -0.0006066500
   0.0005825700   -0.0005560800    0.0004633600
  -0.0001258700    0.0002080800   -0.0002665600
  -0.0001896800   -0.0002060600    0.0000482600
  -0.0000441500    0.0000652400   -0.0002775800
  -0.0010563000   -0.0006703000   -0.0001898900
   0.0003374300   -0.0005911400   -0.0016529500
  -0.0014836600    0.0006151300   -0.0008563700
  -0.0002776600   -0.0007319000   -0.0008387000
   0.0003933400   -0.0012796900   -0.0007742000
  -0.0008713800    0.0005900600   -0.0009190400
  -0.0001225000    0.0001992100   -0.0007611700
   0.0016554200    0.0005347700   -0.0007798900
  -0.0000206800    0.0000280100   -0.0007052700
   0.0004728200    0.0004059700   -0.0009157400
   0.0000580500   -0.0490441600    0.0177856000
  -0.0010444700    0.0014272800   -0.0002044100
   0.0157395300   -0.0092891600   -0.0064494500
   0.0130015900    0.0072350800    0.0054588500
  -0.0007698100    0.0000945700   -0.0004640800
   0.0003039700    0.0006590000    0.0001335000
   0.0006972300    0.0006181000    0.0000074100
  -0.0008759000    0.0001195100   -0.0004031500
   0.0003332100   -0.0005075100   -0.0001648200
  -0.0000424200    0.0000286000   -0.0013420600
  -0.0000609900    0.0002497200   -0.0006857400
   0.0007398600   -0.0003670300   -0.0025912000
  -0.0004105000   -0.0001285600   -0.0019733100
  -0.0001068200   -0.0000899400   -0.0005554800
   0.0001404400    0.0000715200   -0.0007308900
  -0.0000803100    0.0001924200   -0.0006901000
  -0.0001192300    0.0000372100   -0.0006819900
   0.0001326100   -0.0002372000   -0.0006450800
  -0.0410195800    0.0723295400   -0.0922387700
   0.0025855900   -0.0063698400    0.0003722400
   0.0041239800   -0.0065429000   -0.0005042400
  -0.0024130800   -0.0039908800   -0.0000193800
   0.0036951000    0.0007547500   -0.0001043200
   0.0001095600   -0.0001848700    0.0003340100
  -0.0008428900   -0.0025160600    0.0004223300
   0.0001010400   -0.0001832300    0.0003375100
   0.0035804100    0.0001296600   -0.0005367200
  -0.0000838300    0.0001522300    0.0010741700
   0.0002475600   -0.0001247000    0.0012591400
   0.0000064600   -0.0001601800    0.0013368300
  -0.0000675900    0.0000983200    0.0012894300
   0.0000424600    0.0000394400    0.0013060200
   0.0000313800   -0.0000494400    0.0006185700
  -0.0003112200   -0.0000940100    0.0012499600
   0.0000301900   -0.0000514600    0.0006197500
   0.0001465100    0.0001514700    0.0013427800
  -0.0003702300   -0.0053291600    0.0073375100
   0.0002527100   -0.0001855000    0.0004717600
  -0.0015450100    0.0013094600    0.0036187000
   0.0027996100    0.0024610300    0.0054787200
   0.0003264700   -0.0001149100    0.0006527600
  -0.0000633400    0.0000500200    0.0004056000
  -0.0002035600   -0.0000495600    0.0004070800
   0.0001416500   -0.0001106000    0.0005297400
  -0.0002340600    0.0000116700    0.0005296300
  -0.0003559500    0.0006530400    0.0025701000
   0.0000837600   -0.0002845600    0.0004682800
   0.0035602600   -0.0016397500    0.0082850500
  -0.0023369600   -0.0005274900    0.0054375800
   0.0000179800    0.0000588300    0.0003737500
  -0.0000692600   -0.0003038700    0.0006828900
  -0.0000301800   -0.0001511500    0.0005683200
   0.0001382300    0.0000928100    0.0003592800
   0.0000686200    0.0001825200    0.0005264900

37   
 -0.0033749968256213   0.0058456659773597  -0.0073781830899067
  -0.0004690300    0.0007822800   -0.0490976300
  -0.0003075000    0.0000291100   -0.0015239300
   0.0001518900   -0.0012389900   -0.0002197000
  -0.0002149100   -0.0007466000   -0.0003398700
  -0.0005780500    0.0005307400   -0.0014032300
   0.0001254700   -0.0002269600   -0.0006764100
   0.0001919400    0.0001929200   -0.0009932900
   0.0000466900   -0.0000880000   -0.0006639700
   0.0010588000    0.0006515600   -0.0007541700
  -0.0003317200    0.0005695700    0.0007113200
   0.0014792700   -0.0006338800   -0.0000880200
   0.0002776800    0.0007178800   -0.0001034400
  -0.0003902100    0.0012524700   -0.0001660200
   0.0008679500   -0.0006113200   -0.0000220700
   0.0001192700   -0.0002188300   -0.0001775200
  -0.0016446400   -0.0005556400   -0.0001597100
   0.0000213700   -0.0000455800   -0.0002317600
  -0.0004751300   -0.0004283800   -0.0000302400
  -0.0002103700    0.0470838700   -0.0183047100
   0.0010569100   -0.0014053300   -0.0007445400
  -0.0157659100    0.0092139600    0.0056504700
  -0.0130623100   -0.0071847800   -0.0065352300
   0.0007648800   -0.0000753700   -0.0004715800
  -0.0003144200   -0.0006392100   -0.0010776300
  -0.0006895000   -0.0006065200   -0.0009376800
   0.0008761100   -0.0001004500   -0.0005403800
  -0.0003357700    0.0005358600   -0.0007728400
   0.0000434300   -0.0000119600    0.0003986600
   0.0000608800   -0.0002251800   -0.0002572000
  -0.0007459500    0.0003906600    0.0016585900
   0.0004147100    0.0001490400    0.0010243600
   0.0001066000    0.0001060000   -0.0003884200
  -0.0001375600   -0.0000501400   -0.0002091700
   0.0000791500   -0.0001703800   -0.0002573600
   0.0001172700   -0.0000172200   -0.0002580400
  -0.0001302300    0.0002528100   -0.0003004100
   0.0410998900   -0.0699524300    0.0943508900
  -0.0025638800    0.0063268500    0.0005491400
  -0.0041418900    0.0066035400    0.0014509900
   0.0024078200    0.0039785700    0.0009739300
  -0.0036811700   -0.0007440000    0.0010334100
  -0.0001077700    0.0001854800    0.0006078500
   0.0008688700    0.0025362400    0.0005233900
  -0.0001082800    0.0001921100    0.0006079300
  -0.0035889900   -0.0001280000    0.0014857800
   0.0000853700   -0.0001488500   -0.0001318600
  -0.0002481400    0.0001336100   -0.0003142400
  -0.0000060900    0.0001686700   -0.0003983300
   0.0000687100   -0.0000900500   -0.0003457100
  -0.0000372900   -0.0000304300   -0.0003608700
  -0.0000294200    0.0000578400    0.0003245100
   0.0003109500    0.0001019000   -0.0003021800
  -0.0000299100    0.0000537400    0.0003245000
  -0.0001516700   -0.0001440200   -0.0004075600
   0.0003580100    0.0052410400   -0.0062717500
  -0.0002523700    0.0001792400    0.0004761500
   0.0015548200   -0.0013145500   -0.0027039900
  -0.0027860100   -0.0024348700   -0.0044884300
  -0.0003259900    0.0001054500    0.0002910900
   0.0000650100   -0.0000600100    0.0005368100
   0.0002025900    0.0000426300    0.0005365100
  -0.0001397600    0.0001016300    0.0004155000
   0.0002352900   -0.0000190000    0.0004168200
   0.0003684700   -0.0006575000   -0.0016233800
  -0.0000729100    0.0002837600    0.0004783200
  -0.0036314200    0.0016712600   -0.0074507000
   0.0023680800    0.0005140500   -0.0045235500
  -0.0000227700   -0.0000697400    0.0005703800
   0.0000618100    0.0002926500    0.0002625000
   0.0000260900    0.0001464500    0.0003759500
  -0.0001430900   -0.0001040000    0.0005776600
  -0.0000700300   -0.0001972400    0.0004153500
