# Thermal properties / unit cell (natom)

unit:
  temperature:   K
  free_energy:   kJ/mol
  entropy:       J/K/mol
  heat_capacity: J/K/mol

natom: 4    
cutoff_frequency: 0.00000
num_modes: 49152
num_integrated_modes: 49152

zero_point_energy:      16.9903638

thermal_properties:
- temperature:         0.0000000
  free_energy:        16.9903638
  entropy:             0.0000000
  heat_capacity:       0.0000000
  energy:             16.9903638

- temperature:        10.0000000
  free_energy:        16.9900814
  entropy:             0.1175443
  heat_capacity:       0.3921911
  energy:             16.9912569

- temperature:        20.0000000
  free_energy:        16.9843062
  entropy:             1.3643496
  heat_capacity:       4.5824894
  energy:             17.0115932

- temperature:        30.0000000
  free_energy:        16.9559909
  entropy:             4.5755479
  heat_capacity:      11.8430286
  energy:             17.0932574

- temperature:        40.0000000
  free_energy:        16.8890388
  entropy:             8.9276697
  heat_capacity:      18.5359549
  energy:             17.2461456

- temperature:        50.0000000
  free_energy:        16.7761481
  entropy:            13.6814431
  heat_capacity:      24.1243592
  energy:             17.4602202

- temperature:        60.0000000
  free_energy:        16.6151495
  entropy:            18.5200456
  heat_capacity:      29.0249571
  energy:             17.7263522

- temperature:        70.0000000
  free_energy:        16.4058118
  entropy:            23.3416052
  heat_capacity:      33.6199017
  energy:             18.0397242

- temperature:        80.0000000
  free_energy:        16.1484496
  entropy:            28.1240476
  heat_capacity:      38.0966814
  energy:             18.3983734

- temperature:        90.0000000
  free_energy:        15.8434661
  entropy:            32.8658595
  heat_capacity:      42.4917396
  energy:             18.8013935

- temperature:       100.0000000
  free_energy:        15.4912729
  entropy:            37.5653455
  heat_capacity:      46.7660249
  energy:             19.2478074

- temperature:       110.0000000
  free_energy:        15.0923206
  entropy:            42.2162931
  heat_capacity:      50.8603291
  energy:             19.7361129

- temperature:       120.0000000
  free_energy:        14.6471405
  entropy:            46.8091807
  heat_capacity:      54.7237006
  energy:             20.2642421

- temperature:       130.0000000
  free_energy:        14.1563660
  entropy:            51.3333777
  heat_capacity:      58.3231678
  energy:             20.8297051

- temperature:       140.0000000
  free_energy:        13.6207355
  entropy:            55.7788495
  heat_capacity:      61.6437941
  energy:             21.4297744

- temperature:       150.0000000
  free_energy:        13.0410799
  entropy:            60.1371238
  heat_capacity:      64.6849924
  energy:             22.0616485

- temperature:       160.0000000
  free_energy:        12.4183057
  entropy:            64.4016738
  heat_capacity:      67.4561490
  energy:             22.7225735

- temperature:       170.0000000
  free_energy:        11.7533743
  entropy:            68.5679326
  heat_capacity:      69.9728183
  energy:             23.4099228

- temperature:       180.0000000
  free_energy:        11.0472841
  entropy:            72.6331116
  heat_capacity:      72.2538361
  energy:             24.1212442

- temperature:       190.0000000
  free_energy:        10.3010534
  entropy:            76.5959352
  heat_capacity:      74.3193064
  energy:             24.8542811

- temperature:       200.0000000
  free_energy:         9.5157068
  entropy:            80.4563597
  heat_capacity:      76.1892887
  energy:             25.6069788

- temperature:       210.0000000
  free_energy:         8.6922645
  entropy:            84.2153091
  heat_capacity:      77.8829994
  energy:             26.3774794

- temperature:       220.0000000
  free_energy:         7.8317334
  entropy:            87.8744441
  heat_capacity:      79.4183689
  energy:             27.1641111

- temperature:       230.0000000
  free_energy:         6.9351011
  entropy:            91.4359692
  heat_capacity:      80.8118360
  energy:             27.9653740

- temperature:       240.0000000
  free_energy:         6.0033308
  entropy:            94.9024744
  heat_capacity:      82.0782910
  energy:             28.7799247

- temperature:       250.0000000
  free_energy:         5.0373588
  entropy:            98.2768094
  heat_capacity:      83.2311111
  energy:             29.6065612

- temperature:       260.0000000
  free_energy:         4.0380918
  entropy:           101.5619856
  heat_capacity:      84.2822469
  energy:             30.4442081

- temperature:       270.0000000
  free_energy:         3.0064060
  entropy:           104.7610991
  heat_capacity:      85.2423351
  energy:             31.2919027

- temperature:       280.0000000
  free_energy:         1.9431463
  entropy:           107.8772735
  heat_capacity:      86.1208208
  energy:             32.1487829

- temperature:       290.0000000
  free_energy:         0.8491266
  entropy:           110.9136158
  heat_capacity:      86.9260806
  energy:             33.0140752

- temperature:       300.0000000
  free_energy:        -0.2748701
  entropy:           113.8731845
  heat_capacity:      87.6655392
  energy:             33.8870853

- temperature:       310.0000000
  free_energy:        -1.4280911
  entropy:           116.7589670
  heat_capacity:      88.3457780
  energy:             34.7671887

- temperature:       320.0000000
  free_energy:        -2.6098132
  entropy:           119.5738629
  heat_capacity:      88.9726340
  energy:             35.6538229

- temperature:       330.0000000
  free_energy:        -3.8193414
  entropy:           122.3206732
  heat_capacity:      89.5512879
  energy:             36.5464807

- temperature:       340.0000000
  free_energy:        -5.0560087
  entropy:           125.0020944
  heat_capacity:      90.0863432
  energy:             37.4447034

- temperature:       350.0000000
  free_energy:        -6.3191740
  entropy:           127.6207142
  heat_capacity:      90.5818955
  energy:             38.3480760

- temperature:       360.0000000
  free_energy:        -7.6082219
  entropy:           130.1790105
  heat_capacity:      91.0415935
  energy:             39.2562219

- temperature:       370.0000000
  free_energy:        -8.9225610
  entropy:           132.6793520
  heat_capacity:      91.4686928
  energy:             40.1687992

- temperature:       380.0000000
  free_energy:       -10.2616233
  entropy:           135.1240003
  heat_capacity:      91.8661027
  energy:             41.0854968

- temperature:       390.0000000
  free_energy:       -11.6248626
  entropy:           137.5151118
  heat_capacity:      92.2364276
  energy:             42.0060310

- temperature:       400.0000000
  free_energy:       -13.0117540
  entropy:           139.8547421
  heat_capacity:      92.5820022
  energy:             42.9301429

- temperature:       410.0000000
  free_energy:       -14.4217924
  entropy:           142.1448486
  heat_capacity:      92.9049234
  energy:             43.8575956

- temperature:       420.0000000
  free_energy:       -15.8544921
  entropy:           144.3872957
  heat_capacity:      93.2070772
  energy:             44.7881721

- temperature:       430.0000000
  free_energy:       -17.3093854
  entropy:           146.5838580
  heat_capacity:      93.4901633
  energy:             45.7216736

- temperature:       440.0000000
  free_energy:       -18.7860219
  entropy:           148.7362248
  heat_capacity:      93.7557156
  energy:             46.6579170

- temperature:       450.0000000
  free_energy:       -20.2839679
  entropy:           150.8460044
  heat_capacity:      94.0051207
  energy:             47.5967341

- temperature:       460.0000000
  free_energy:       -21.8028052
  entropy:           152.9147281
  heat_capacity:      94.2396341
  energy:             48.5379698

- temperature:       470.0000000
  free_energy:       -23.3421305
  entropy:           154.9438540
  heat_capacity:      94.4603944
  energy:             49.4814809

- temperature:       480.0000000
  free_energy:       -24.9015549
  entropy:           156.9347711
  heat_capacity:      94.6684359
  energy:             50.4271353

- temperature:       490.0000000
  free_energy:       -26.4807030
  entropy:           158.8888027
  heat_capacity:      94.8646992
  energy:             51.3748104

- temperature:       500.0000000
  free_energy:       -28.0792122
  entropy:           160.8072101
  heat_capacity:      95.0500415
  energy:             52.3243929

- temperature:       510.0000000
  free_energy:       -29.6967324
  entropy:           162.6911958
  heat_capacity:      95.2252447
  energy:             53.2757774

- temperature:       520.0000000
  free_energy:       -31.3329252
  entropy:           164.5419068
  heat_capacity:      95.3910232
  energy:             54.2288663

- temperature:       530.0000000
  free_energy:       -32.9874633
  entropy:           166.3604377
  heat_capacity:      95.5480308
  energy:             55.1835687

- temperature:       540.0000000
  free_energy:       -34.6600302
  entropy:           168.1478332
  heat_capacity:      95.6968663
  energy:             56.1397997

- temperature:       550.0000000
  free_energy:       -36.3503195
  entropy:           169.9050911
  heat_capacity:      95.8380790
  energy:             57.0974806

- temperature:       560.0000000
  free_energy:       -38.0580347
  entropy:           171.6331648
  heat_capacity:      95.9721738
  energy:             58.0565376

- temperature:       570.0000000
  free_energy:       -39.7828886
  entropy:           173.3329657
  heat_capacity:      96.0996149
  energy:             59.0169019

- temperature:       580.0000000
  free_energy:       -41.5246027
  entropy:           175.0053652
  heat_capacity:      96.2208296
  energy:             59.9785091

- temperature:       590.0000000
  free_energy:       -43.2829073
  entropy:           176.6511972
  heat_capacity:      96.3362122
  energy:             60.9412990

- temperature:       600.0000000
  free_energy:       -45.0575408
  entropy:           178.2712598
  heat_capacity:      96.4461265
  energy:             61.9052151

- temperature:       610.0000000
  free_energy:       -46.8482492
  entropy:           179.8663174
  heat_capacity:      96.5509087
  energy:             62.8702045

- temperature:       620.0000000
  free_energy:       -48.6547862
  entropy:           181.4371023
  heat_capacity:      96.6508701
  energy:             63.8362173

- temperature:       630.0000000
  free_energy:       -50.4769127
  entropy:           182.9843165
  heat_capacity:      96.7462986
  energy:             64.8032068

- temperature:       640.0000000
  free_energy:       -52.3143962
  entropy:           184.5086331
  heat_capacity:      96.8374614
  energy:             65.7711290

- temperature:       650.0000000
  free_energy:       -54.1670111
  entropy:           186.0106981
  heat_capacity:      96.9246066
  energy:             66.7399426

- temperature:       660.0000000
  free_energy:       -56.0345381
  entropy:           187.4911312
  heat_capacity:      97.0079646
  energy:             67.7096085

- temperature:       670.0000000
  free_energy:       -57.9167637
  entropy:           188.9505278
  heat_capacity:      97.0877496
  energy:             68.6800900

- temperature:       680.0000000
  free_energy:       -59.8134804
  entropy:           190.3894598
  heat_capacity:      97.1641611
  energy:             69.6513523

- temperature:       690.0000000
  free_energy:       -61.7244865
  entropy:           191.8084769
  heat_capacity:      97.2373850
  energy:             70.6233626

- temperature:       700.0000000
  free_energy:       -63.6495853
  entropy:           193.2081075
  heat_capacity:      97.3075946
  energy:             71.5960899

- temperature:       710.0000000
  free_energy:       -65.5885857
  entropy:           194.5888601
  heat_capacity:      97.3749519
  energy:             72.5695050

- temperature:       720.0000000
  free_energy:       -67.5413012
  entropy:           195.9512239
  heat_capacity:      97.4396079
  energy:             73.5435800

- temperature:       730.0000000
  free_energy:       -69.5075504
  entropy:           197.2956699
  heat_capacity:      97.5017042
  energy:             74.5182886

- temperature:       740.0000000
  free_energy:       -71.4871564
  entropy:           198.6226519
  heat_capacity:      97.5613730
  energy:             75.4936059

- temperature:       750.0000000
  free_energy:       -73.4799467
  entropy:           199.9326068
  heat_capacity:      97.6187384
  energy:             76.4695084

- temperature:       760.0000000
  free_energy:       -75.4857532
  entropy:           201.2259561
  heat_capacity:      97.6739165
  energy:             77.4459734

- temperature:       770.0000000
  free_energy:       -77.5044119
  entropy:           202.5031060
  heat_capacity:      97.7270163
  energy:             78.4229798

- temperature:       780.0000000
  free_energy:       -79.5357626
  entropy:           203.7644485
  heat_capacity:      97.7781403
  energy:             79.4005072

- temperature:       790.0000000
  free_energy:       -81.5796494
  entropy:           205.0103617
  heat_capacity:      97.8273846
  energy:             80.3785363

- temperature:       800.0000000
  free_energy:       -83.6359197
  entropy:           206.2412107
  heat_capacity:      97.8748397
  energy:             81.3570489

- temperature:       810.0000000
  free_energy:       -85.7044246
  entropy:           207.4573481
  heat_capacity:      97.9205906
  energy:             82.3360274

- temperature:       820.0000000
  free_energy:       -87.7850187
  entropy:           208.6591147
  heat_capacity:      97.9647176
  energy:             83.3154553

- temperature:       830.0000000
  free_energy:       -89.8775601
  entropy:           209.8468394
  heat_capacity:      98.0072960
  energy:             84.2953166

- temperature:       840.0000000
  free_energy:       -91.9819098
  entropy:           211.0208405
  heat_capacity:      98.0483971
  energy:             85.2755963

- temperature:       850.0000000
  free_energy:       -94.0979322
  entropy:           212.1814259
  heat_capacity:      98.0880881
  energy:             86.2562799

- temperature:       860.0000000
  free_energy:       -96.2254946
  entropy:           213.3288932
  heat_capacity:      98.1264324
  energy:             87.2373536

- temperature:       870.0000000
  free_energy:       -98.3644672
  entropy:           214.4635304
  heat_capacity:      98.1634898
  energy:             88.2188042

- temperature:       880.0000000
  free_energy:      -100.5147233
  entropy:           215.5856166
  heat_capacity:      98.1993172
  energy:             89.2006193

- temperature:       890.0000000
  free_energy:      -102.6761386
  entropy:           216.6954217
  heat_capacity:      98.2339679
  energy:             90.1827866

- temperature:       900.0000000
  free_energy:      -104.8485917
  entropy:           217.7932073
  heat_capacity:      98.2674927
  energy:             91.1652949

- temperature:       910.0000000
  free_energy:      -107.0319636
  entropy:           218.8792269
  heat_capacity:      98.2999397
  energy:             92.1481329

- temperature:       920.0000000
  free_energy:      -109.2261378
  entropy:           219.9537261
  heat_capacity:      98.3313543
  energy:             93.1312902

- temperature:       930.0000000
  free_energy:      -111.4310005
  entropy:           221.0169432
  heat_capacity:      98.3617797
  energy:             94.1147567

- temperature:       940.0000000
  free_energy:      -113.6464399
  entropy:           222.0691091
  heat_capacity:      98.3912567
  energy:             95.0985227

- temperature:       950.0000000
  free_energy:      -115.8723466
  entropy:           223.1104478
  heat_capacity:      98.4198242
  energy:             96.0825788

- temperature:       960.0000000
  free_energy:      -118.1086135
  entropy:           224.1411767
  heat_capacity:      98.4475191
  energy:             97.0669162

- temperature:       970.0000000
  free_energy:      -120.3551355
  entropy:           225.1615071
  heat_capacity:      98.4743764
  energy:             98.0515264

- temperature:       980.0000000
  free_energy:      -122.6118096
  entropy:           226.1716436
  heat_capacity:      98.5004294
  energy:             99.0364011

- temperature:       990.0000000
  free_energy:      -124.8785350
  entropy:           227.1717853
  heat_capacity:      98.5257097
  energy:            100.0215324

- temperature:      1000.0000000
  free_energy:      -127.1552126
  entropy:           228.1621254
  heat_capacity:      98.5502475
  energy:            101.0069128
