 vasp.6.4.3 19Mar24 (build Jul  1 2025 23:09:51) complex                         
 executed on             LinuxGNU date 2026.01.02  19:08:30
 running   14 mpi-ranks, with   14 threads/rank, on    1 nodes
 distrk:  each k-point on   14 cores,    1 groups
 distr:  one band on NCORE=   1 cores,   14 groups


--------------------------------------------------------------------------------------------------------


 INCAR:
   ENCUT = 520.000000
   KSPACING = 0.300000
   SIGMA = 0.030000
   EDIFF = 1.00e-06
   EDIFFG = -1.00e-02
   GGA = PE
   PREC = Accurate
   IBRION = 1
   ISIF = 2
   ISMEAR = 0
   NELM = 120
   NSW = 200

 POTCAR:    PAW_PBE Si 05Jan2001                  
 POTCAR:    PAW_PBE O 08Apr2002                   
 POTCAR:    PAW_PBE Si 05Jan2001                  
   SHA256 =  79d9987ad8750f624c4d6acb2a16d13abf6a777132adc04dc6c8399be72b42bb Si/POTCAR             
   COPYR  = (c) Copyright 05Jan2001 Georg Kresse                                                    
   COPYR  = This file is part of the software VASP. Any use, copying, and all other rights are regul
   COPYR  = If you do not have a valid VASP license, you may not use, copy or distribute this file. 
   VRHFIN =Si: s2p2                                                                                 
   LEXCH  = PE                                                                                      
   EATOM  =   103.0669 eV,    7.5752 Ry                                                             
                                                                                                    
   TITEL  = PAW_PBE Si 05Jan2001                                                                    
   LULTRA =        F    use ultrasoft PP ?                                                          
   IUNSCR =        1    unscreen: 0-lin 1-nonlin 2-no                                               
   RPACOR =    1.500    partial core radius                                                         
   POMASS =   28.085; ZVAL   =    4.000    mass and valenz                                          
   RCORE  =    1.900    outmost cutoff radius                                                       
   RWIGS  =    2.480; RWIGS  =    1.312    wigner-seitz radius (au A)                               
   ENMAX  =  245.345; ENMIN  =  184.009 eV                                                          
   ICORE  =        2    local potential                                                             
   LCOR   =        T    correct aug charges                                                         
   LPAW   =        T    paw PP                                                                      
   EAUG   =  322.069                                                                                
   DEXC   =    0.000                                                                                
   RMAX   =    1.950    core radius for proj-oper                                                   
   RAUG   =    1.300    factor for augmentation sphere                                              
   RDEP   =    1.993    radius for radial grids                                                     
   RDEPT  =    1.837    core radius for aug-charge                                                  
                                                                                                    
   Atomic configuration                                                                             
    6 entries                                                                                       
     n  l   j            E        occ.                                                              
     1  0  0.50     -1785.8828   2.0000                                                             
     2  0  0.50      -139.4969   2.0000                                                             
     2  1  1.50       -95.5546   6.0000                                                             
     3  0  0.50       -10.8127   2.0000                                                             
     3  1  0.50        -4.0811   2.0000                                                             
     3  2  1.50        -4.0817   0.0000                                                             
   Description                                                                                      
     l       E           TYP  RCUT    TYP  RCUT                                                     
     0    -10.8127223     23  1.900                                                                 
     0     -7.6451159     23  1.900                                                                 
     1     -4.0811372     23  1.900                                                                 
     1      2.4879257     23  1.900                                                                 
     2     -4.0817478      7  1.900                                                                 
  local pseudopotential read in
  partial core-charges read in
  partial kinetic energy density read in
  atomic valenz-charges read in
  non local Contribution for L=           0  read in
    real space projection operators read in
  non local Contribution for L=           0  read in
    real space projection operators read in
  non local Contribution for L=           1  read in
    real space projection operators read in
  non local Contribution for L=           1  read in
    real space projection operators read in
    PAW grid and wavefunctions read in

   number of l-projection  operators is LMAX  =           4
   number of lm-projection operators is LMMAX =           8

 POTCAR:    PAW_PBE O 08Apr2002                   
   SHA256 =  818f92134a0a090dccd8ba1447fa70422a3b330e708bb4f08108d8ae51209ddf O/POTCAR              
   COPYR  = (c) Copyright 08Apr2002 Georg Kresse                                                    
   COPYR  = This file is part of the software VASP. Any use, copying, and all other rights are regul
   COPYR  = If you do not have a valid VASP license, you may not use, copy or distribute this file. 
   VRHFIN =O: s2p4                                                                                  
   LEXCH  = PE                                                                                      
   EATOM  =   432.3788 eV,   31.7789 Ry                                                             
                                                                                                    
   TITEL  = PAW_PBE O 08Apr2002                                                                     
   LULTRA =        F    use ultrasoft PP ?                                                          
   IUNSCR =        1    unscreen: 0-lin 1-nonlin 2-no                                               
   RPACOR =    1.200    partial core radius                                                         
   POMASS =   16.000; ZVAL   =    6.000    mass and valenz                                          
   RCORE  =    1.520    outmost cutoff radius                                                       
   RWIGS  =    1.550; RWIGS  =    0.820    wigner-seitz radius (au A)                               
   ENMAX  =  400.000; ENMIN  =  300.000 eV                                                          
   ICORE  =        2    local potential                                                             
   LCOR   =        T    correct aug charges                                                         
   LPAW   =        T    paw PP                                                                      
   EAUG   =  605.392                                                                                
   DEXC   =    0.000                                                                                
   RMAX   =    1.553    core radius for proj-oper                                                   
   RAUG   =    1.300    factor for augmentation sphere                                              
   RDEP   =    1.550    radius for radial grids                                                     
   RDEPT  =    1.329    core radius for aug-charge                                                  
                                                                                                    
   Atomic configuration                                                                             
    4 entries                                                                                       
     n  l   j            E        occ.                                                              
     1  0  0.50      -514.6923   2.0000                                                             
     2  0  0.50       -23.9615   2.0000                                                             
     2  1  0.50        -9.0305   4.0000                                                             
     3  2  1.50        -9.5241   0.0000                                                             
   Description                                                                                      
     l       E           TYP  RCUT    TYP  RCUT                                                     
     0    -23.9615318     23  1.200                                                                 
     0     -9.5240782     23  1.200                                                                 
     1     -9.0304911     23  1.520                                                                 
     1      8.1634956     23  1.520                                                                 
     2     -9.5240782      7  1.500                                                                 
  local pseudopotential read in
  partial core-charges read in
  partial kinetic energy density read in
  kinetic energy density of atom read in
  atomic valenz-charges read in
  non local Contribution for L=           0  read in
    real space projection operators read in
  non local Contribution for L=           0  read in
    real space projection operators read in
  non local Contribution for L=           1  read in
    real space projection operators read in
  non local Contribution for L=           1  read in
    real space projection operators read in
    PAW grid and wavefunctions read in

   number of l-projection  operators is LMAX  =           4
   number of lm-projection operators is LMMAX =           8

  PAW_PBE Si 05Jan2001                  :
 energy of atom  1       EATOM= -103.0669
 kinetic energy error for atom=    0.0005 (will be added to EATOM!!)
  PAW_PBE O 08Apr2002                   :
 energy of atom  2       EATOM= -432.3788
 kinetic energy error for atom=    0.0208 (will be added to EATOM!!)


 POSCAR: Si O
  positions in cartesian coordinates
  No initial velocities read in


 exchange-correlation table for PE
   RHO(1)=    0.500       N(1)  =     2000
   RHO(2)=  100.500       N(2)  =     4000



--------------------------------------------------------------------------------------------------------


 ion  position               nearest neighbor table
   1  0.000  0.469  0.333-   6 1.61   9 1.61   4 1.62   8 1.62   3 3.06   3 3.06   2 3.06   2 3.06

   2  0.531  0.531  0.000-   5 1.61   8 1.61   7 1.62   6 1.62   1 3.06   3 3.06   1 3.06   3 3.06

   3  0.469  0.000  0.667-   7 1.61   4 1.61   5 1.62   9 1.62   1 3.06   1 3.06   2 3.06   2 3.06

   4  0.145  0.731  0.548-   3 1.61   1 1.62
   5  0.587  0.855  0.881-   2 1.61   3 1.62
   6  0.269  0.413  0.214-   1 1.61   2 1.62
   7  0.413  0.269  0.786-   3 1.61   2 1.62
   8  0.855  0.587  0.119-   2 1.61   1 1.62
   9  0.731  0.145  0.452-   1 1.61   3 1.62

  LATTYP: Found a hexagonal cell.
 ALAT       =     4.9165578074
 C/A-ratio  =     1.1047617994
  
  Lattice vectors:
  
 A1 = (   2.4582789037,  -4.2578639604,   0.0000000000)
 A2 = (   2.4582789037,   4.2578639604,   0.0000000000)
 A3 = (   0.0000000000,   0.0000000000,   5.4316252501)


Analysis of symmetry for initial positions (statically):
=====================================================================
 Subroutine PRICEL returns:
 Original cell was already a primitive cell.
 

 Routine SETGRP: Setting up the symmetry group for a 
 hexagonal supercell.


 Subroutine GETGRP returns: Found  6 space group operations
 (whereof  2 operations were pure point group operations)
 out of a pool of 24 trial point group operations.


The static configuration has the point symmetry C_2 .
 The point group associated with its full space group is D_3 .


Analysis of symmetry for dynamics (positions and initial velocities):
=====================================================================
 Subroutine PRICEL returns:
 Original cell was already a primitive cell.
 

 Routine SETGRP: Setting up the symmetry group for a 
 hexagonal supercell.


 Subroutine GETGRP returns: Found  6 space group operations
 (whereof  2 operations were pure point group operations)
 out of a pool of 24 trial point group operations.


The dynamic configuration has the point symmetry C_2 .
 The point group associated with its full space group is D_3 .


 Subroutine INISYM returns: Found  6 space group operations
 (whereof  2 operations are pure point group operations),
 and found     1 'primitive' translations


----------------------------------------------------------------------------------------

                                     Primitive cell                                     

  volume of cell :     113.7058

  direct lattice vectors                    reciprocal lattice vectors
     2.458278904 -4.257863960  0.000000000     0.203394334 -0.117429773  0.000000000
     2.458278904  4.257863960  0.000000000     0.203394334  0.117429773 -0.000000000
     0.000000000  0.000000000  5.431625250    -0.000000000  0.000000000  0.184106958

  length of vectors
     4.916557807  4.916557807  5.431625250     0.234859547  0.234859547  0.184106958

  position of ions in fractional coordinates (direct lattice)
     1.000000000  0.468798230  0.333333333
     0.531201770  0.531201770  0.000000000
     0.468798230  1.000000000  0.666666667
     0.144538360  0.731439790  0.547819600
     0.586901430  0.855461640  0.881152933
     0.268560210  0.413098570  0.214486267
     0.413098570  0.268560210  0.785513733
     0.855461640  0.586901430  0.118847067
     0.731439790  0.144538360  0.452180400

  ion indices of the primitive-cell ions
   primitive index   ion index
                 1           1
                 2           2
                 3           3
                 4           4
                 5           5
                 6           6
                 7           7
                 8           8
                 9           9

----------------------------------------------------------------------------------------


 -----------------------------------------------------------------------------
|                                                                             |
|           W    W    AA    RRRRR   N    N  II  N    N   GGGG   !!!           |
|           W    W   A  A   R    R  NN   N  II  NN   N  G    G  !!!           |
|           W    W  A    A  R    R  N N  N  II  N N  N  G       !!!           |
|           W WW W  AAAAAA  RRRRR   N  N N  II  N  N N  G  GGG   !            |
|           WW  WW  A    A  R   R   N   NN  II  N   NN  G    G                |
|           W    W  A    A  R    R  N    N  II  N    N   GGGG   !!!           |
|                                                                             |
|     The requested file  could not be found or opened for reading            |
|     k-point information. Automatic k-point generation is used as a          |
|     fallback, which may lead to unwanted results.                           |
|                                                                             |
 -----------------------------------------------------------------------------



Automatic generation of k-mesh.
 Grid dimensions derived from KSPACING:
 generate k-points for:    5    5    4

 Generating k-lattice:

  Cartesian coordinates                     Fractional coordinates (reciprocal lattice)
     0.040678867 -0.023485955  0.000000000     0.200000000  0.000000000  0.000000000
     0.040678867  0.023485955 -0.000000000     0.000000000  0.200000000  0.000000000
    -0.000000000  0.000000000  0.046026739     0.000000000  0.000000000  0.250000000

  Length of vectors
     0.046971909  0.046971909  0.046026739

  Shift w.r.t. Gamma in fractional coordinates (k-lattice)
     0.000000000  0.000000000  0.000000000

 
 Subroutine IBZKPT returns following result:
 ===========================================
 
 Found     17 irreducible k-points:
 
 Following reciprocal coordinates:
            Coordinates               Weight
  0.000000  0.000000  0.000000      1.000000
  0.200000  0.000000  0.000000      6.000000
  0.400000  0.000000  0.000000      6.000000
  0.200000  0.200000  0.000000      6.000000
  0.400000  0.200000  0.000000      6.000000
  0.000000  0.000000  0.250000      2.000000
  0.200000  0.000000  0.250000      6.000000
  0.000000  0.200000  0.250000      6.000000
  0.400000  0.000000  0.250000      6.000000
  0.000000  0.400000  0.250000      6.000000
  0.200000  0.200000  0.250000     12.000000
  0.400000  0.200000  0.250000     12.000000
  0.000000  0.000000  0.500000      1.000000
  0.200000  0.000000  0.500000      6.000000
  0.400000  0.000000  0.500000      6.000000
  0.200000  0.200000  0.500000      6.000000
  0.400000  0.200000  0.500000      6.000000
 
 Following cartesian coordinates:
            Coordinates               Weight
  0.000000 -0.000000  0.000000      1.000000
  0.040679 -0.023486  0.000000      6.000000
  0.081358 -0.046972  0.000000      6.000000
  0.081358  0.000000  0.000000      6.000000
  0.122037 -0.023486  0.000000      6.000000
  0.000000 -0.000000  0.046027      2.000000
  0.040679 -0.023486  0.046027      6.000000
  0.040679  0.023486  0.046027      6.000000
  0.081358 -0.046972  0.046027      6.000000
  0.081358  0.046972  0.046027      6.000000
  0.081358  0.000000  0.046027     12.000000
  0.122037 -0.023486  0.046027     12.000000
  0.000000 -0.000000  0.092053      1.000000
  0.040679 -0.023486  0.092053      6.000000
  0.081358 -0.046972  0.092053      6.000000
  0.081358  0.000000  0.092053      6.000000
  0.122037 -0.023486  0.092053      6.000000
 


--------------------------------------------------------------------------------------------------------




 Dimension of arrays:
   k-points           NKPTS =     17   k-points in BZ     NKDIM =     17   number of bands    NBANDS=     42
   number of dos      NEDOS =    301   number of ions     NIONS =      9
   non local maximal  LDIM  =      4   non local SUM 2l+1 LMDIM =      8
   total plane-waves  NPLWV =  64000
   max r-space proj   IRMAX =      1   max aug-charges    IRDMAX=  19016
   dimension x,y,z NGX =    40 NGY =   40 NGZ =   40
   dimension x,y,z NGXF=    80 NGYF=   80 NGZF=   80
   support grid    NGXF=    80 NGYF=   80 NGZF=   80
   ions per type =               3   6
   NGX,Y,Z   is equivalent  to a cutoff of  13.53, 13.53, 12.24 a.u.
   NGXF,Y,Z  is equivalent  to a cutoff of  27.05, 27.05, 24.49 a.u.

 SYSTEM =  unknown system                          
 POSCAR =  Si O                                    

 Startparameter for this run:
   NWRITE =      2    write-flag & timer
   PREC   = accura    normal or accurate (medium, high low for compatibility)
   ISTART =      1    job   : 0-new  1-cont  2-samecut
   ICHARG =      0    charge: 1-file 2-atom 10-const
   ISPIN  =      1    spin polarized calculation?
   LNONCOLLINEAR =      F non collinear calculations
   LSORBIT =      F    spin-orbit coupling
   INIWAV =      1    electr: 0-lowe 1-rand  2-diag
   LASPH  =      F    aspherical Exc in radial PAW
 Electronic Relaxation 1
   ENCUT  =  520.0 eV  38.22 Ry    6.18 a.u.   9.14  9.14 10.10*2*pi/ulx,y,z
   ENINI  =  520.0     initial cutoff
   ENAUG  =  605.4 eV  augmentation charge cutoff
   NELM   =    120;   NELMIN=  2; NELMDL=  0     # of ELM steps 
   EDIFF  = 0.1E-05   stopping-criterion for ELM
   LREAL  =      F    real-space projection
   NLSPLINE    = F    spline interpolate recip. space projectors
   LCOMPAT=      F    compatible to vasp.4.4
   GGA_COMPAT  = T    GGA compatible to vasp.4.4-vasp.4.6
   LMAXPAW     = -100 max onsite density
   LMAXMIX     =    2 max onsite mixed and CHGCAR
   VOSKOWN=      0    Vosko Wilk Nusair interpolation
   ROPT   =    0.00000   0.00000
 Ionic relaxation
   EDIFFG = -.1E-01   stopping-criterion for IOM
   NSW    =    200    number of steps for IOM
   NBLOCK =      1;   KBLOCK =    200    inner block; outer block 
   IBRION =      1    ionic relax: 0-MD 1-quasi-New 2-CG
   NFREE  =      0    steps in history (QN), initial steepest desc. (CG)
   ISIF   =      2    stress and relaxation
   IWAVPR =     11    prediction:  0-non 1-charg 2-wave 3-comb
   ISYM   =      2    0-nonsym 1-usesym 2-fastsym
   LCORR  =      T    Harris-Foulkes like correction to forces

   POTIM  = 0.5000    time-step for ionic-motion
   TEIN   =    0.0    initial temperature
   TEBEG  =    0.0;   TEEND  =   0.0 temperature during run
   SMASS  =  -3.00    Nose mass-parameter (am)
   estimated Nose-frequenzy (Omega)   =  0.10E-29 period in steps = 0.13E+47 mass=  -0.552E-27a.u.
   SCALEE = 1.0000    scale energy and forces
   NPACO  =    256;   APACO  = 10.0  distance and # of slots for P.C.
   PSTRESS=    0.0 pullay stress

  Mass of Ions in am
   POMASS =  28.09 16.00
  Ionic Valenz
   ZVAL   =   4.00  6.00
  Atomic Wigner-Seitz radii
   RWIGS  =  -1.00 -1.00
  virtual crystal weights 
   VCA    =   1.00  1.00
   NELECT =      48.0000    total number of electrons
   NUPDOWN=      -1.0000    fix difference up-down

 DOS related values:
   EMIN   =  10.00;   EMAX   =-10.00  energy-range for DOS
   EFERMI =   0.00;   METHOD = LEGACY      
   ISMEAR =     0;   SIGMA  =   0.03  broadening in eV -4-tet -1-fermi 0-gaus

 Electronic relaxation 2 (details)
   IALGO  =     38    algorithm
   LDIAG  =      T    sub-space diagonalisation (order eigenvalues)
   LSUBROT=      F    optimize rotation matrix (better conditioning)
   TURBO    =      0    0=normal 1=particle mesh
   IRESTART =      0    0=no restart 2=restart with 2 vectors
   NREBOOT  =      0    no. of reboots
   NMIN     =      0    reboot dimension
   EREF     =   0.00    reference energy to select bands
   IMIX   =      4    mixing-type and parameters
     AMIX     =   0.40;   BMIX     =  1.00
     AMIX_MAG =   1.60;   BMIX_MAG =  1.00
     AMIN     =   0.10
     WC   =   100.;   INIMIX=   1;  MIXPRE=   1;  MAXMIX= -45

 Intra band minimization:
   WEIMIN = 0.0010     energy-eigenvalue tresh-hold
   EBREAK =  0.60E-08  absolut break condition
   DEPER  =   0.30     relativ break condition  

   TIME   =   0.40     timestep for ELM

  volume/ion in A,a.u.               =      12.63        85.26
  Fermi-wavevector in a.u.,A,eV,Ry     =   1.228083  2.320740 20.520137  1.508187
  Thomas-Fermi vector in A             =   2.363022

 Write flags
   LWAVE        =      T    write WAVECAR
   LDOWNSAMPLE  =      F    k-point downsampling of WAVECAR
   LCHARG       =      T    write CHGCAR
   LVTOT        =      F    write LOCPOT, total local potential
   LVHAR        =      F    write LOCPOT, Hartree potential only
   WRT_POTENTIAL= false  ! write potential to hdf5 file
   LELF         =      F    write electronic localiz. function (ELF)
   LORBIT       =      0    0 simple, 1 ext, 2 COOP (PROOUT), +10 PAW based schemes


 Dipole corrections
   LMONO      =      F    monopole corrections only (constant potential shift)
   LDIPOL     =      F    correct potential (dipole corrections)
   IDIPOL     =      0    1-x, 2-y, 3-z, 4-all directions 
   EPSILON    =  1.0000000 bulk dielectric constant
   LVACPOTAV  =      F  vacuum potentials using an averaging scheme for the charge density
   VACPOTFLAT =  0.1000000 required flatness to determine vacuum potential
 Exchange correlation treatment:
   GGA     = PE    functional components
   XC_C    = 1    coefficients multiplying the functional components
   LIBXC   =     F    Libxc                    
   VOSKOWN =     0    Vosko Wilk Nusair interpolation
   LHFCALC =     F    Hartree Fock is set to
   LHFONE  =     F    Hartree Fock one center treatment
   AEXX    =    0.0000 exact exchange contribution

 Parameters of functionals:
   PE:
     No parameter

 Van der Waals corrections
   IVDW    =     0    specifies the selected vdW correction

 Linear response parameters
   LEPSILON=     F    determine dielectric tensor
   LRPA    =     F    only Hartree local field effects (RPA)
   LNABLA  =     F    use nabla operator in PAW spheres
   LVEL    =     F    velocity operator in full k-point grid
   CSHIFT  =0.1000    complex shift for real part using Kramers Kronig
   OMEGAMAX=  -1.0    maximum frequency
   DEG_THRESHOLD= 0.2000000E-02 threshold for treating states as degnerate
   RTIME   =   -0.100 relaxation time in fs
  (WPLASMAI=    0.000 imaginary part of plasma frequency in eV, 0.658/RTIME)
   DFIELD  = 0.0000000 0.0000000 0.0000000 field for delta impulse in time

  Optional k-point grid parameters
   LKPOINTS_OPT  =     F    use optional k-point grid
   KPOINTS_OPT_MODE=     1    mode for optional k-point grid

 Orbital magnetization related:
   ORBITALMAG=     F  switch on orbital magnetization
   LCHIMAG   =     F  perturbation theory with respect to B field
   DQ        =  0.001000  dq finite difference perturbation B field
   LLRAUG    =     F  two centre corrections for induced B field
   LBONE     =     F  B-component reconstruction in AE one-centre
   LVGVCALC  =     T  calculate vGv susceptibility
   LVGVAPPL  =     F  apply vGv susceptibility instead of pGv for G=0

 Random number generation:
   RANDOM_GENERATOR = DEFAULT
   PCG_SEED         = not used


--------------------------------------------------------------------------------------------------------


 quasi-Newton-method for relaxation of ions
 charge density and potential will be updated during run
 non-spin polarized calculation
 Variant of blocked Davidson
 Davidson routine will perform the subspace rotation
 perform sub-space diagonalisation
    after iterative eigenvector-optimisation
 modified Broyden-mixing scheme, WC =      100.0
 initial mixing is a Kerker type mixing with AMIX =  0.4000 and BMIX =      1.0000
 Hartree-type preconditioning will be used
 using additional bands           18
 reciprocal scheme for non local part
 use partial core corrections
 calculate Harris-corrections to forces   (improved forces if not selfconsistent)
 use gradient corrections 
 use of overlap-Matrix (Vanderbilt PP)
 Gauss-broadening in eV      SIGMA  =   0.03


--------------------------------------------------------------------------------------------------------


  energy-cutoff  :      520.00
  volume of cell :      113.71
      direct lattice vectors                 reciprocal lattice vectors
     2.458278904 -4.257863960  0.000000000     0.203394334 -0.117429773  0.000000000
     2.458278904  4.257863960  0.000000000     0.203394334  0.117429773 -0.000000000
     0.000000000  0.000000000  5.431625250    -0.000000000  0.000000000  0.184106958

  length of vectors
     4.916557807  4.916557807  5.431625250     0.234859547  0.234859547  0.184106958



 old parameters found on file WAVECAR:
  energy-cutoff  :      520.00
  volume of cell :      113.71
      direct lattice vectors                 reciprocal lattice vectors
     2.458278904 -4.257863960  0.000000000     0.203394334 -0.117429773  0.000000000
     2.458278904  4.257863960  0.000000000     0.203394334  0.117429773 -0.000000000
     0.000000000  0.000000000  5.431625250    -0.000000000  0.000000000  0.184106958

  length of vectors


 k-points in units of 2pi/SCALE and weight: read from INCAR                         
   0.00000000  0.00000000  0.00000000       0.010
   0.04067887 -0.02348595  0.00000000       0.060
   0.08135773 -0.04697191  0.00000000       0.060
   0.08135773 -0.00000000  0.00000000       0.060
   0.12203660 -0.02348595  0.00000000       0.060
   0.00000000  0.00000000  0.04602674       0.020
   0.04067887 -0.02348595  0.04602674       0.060
   0.04067887  0.02348595  0.04602674       0.060
   0.08135773 -0.04697191  0.04602674       0.060
   0.08135773  0.04697191  0.04602674       0.060
   0.08135773 -0.00000000  0.04602674       0.120
   0.12203660 -0.02348595  0.04602674       0.120
   0.00000000  0.00000000  0.09205348       0.010
   0.04067887 -0.02348595  0.09205348       0.060
   0.08135773 -0.04697191  0.09205348       0.060
   0.08135773 -0.00000000  0.09205348       0.060
   0.12203660 -0.02348595  0.09205348       0.060

 k-points in reciprocal lattice and weights: read from INCAR                         
   0.00000000  0.00000000  0.00000000       0.010
   0.20000000  0.00000000  0.00000000       0.060
   0.40000000  0.00000000  0.00000000       0.060
   0.20000000  0.20000000  0.00000000       0.060
   0.40000000  0.20000000  0.00000000       0.060
   0.00000000  0.00000000  0.25000000       0.020
   0.20000000  0.00000000  0.25000000       0.060
   0.00000000  0.20000000  0.25000000       0.060
   0.40000000  0.00000000  0.25000000       0.060
   0.00000000  0.40000000  0.25000000       0.060
   0.20000000  0.20000000  0.25000000       0.120
   0.40000000  0.20000000  0.25000000       0.120
   0.00000000  0.00000000  0.50000000       0.010
   0.20000000  0.00000000  0.50000000       0.060
   0.40000000  0.00000000  0.50000000       0.060
   0.20000000  0.20000000  0.50000000       0.060
   0.40000000  0.20000000  0.50000000       0.060

 position of ions in fractional coordinates (direct lattice) 
   0.00000000  0.46879823  0.33333333
   0.53120177  0.53120177  0.00000000
   0.46879823  0.00000000  0.66666667
   0.14453836  0.73143979  0.54781960
   0.58690143  0.85546164  0.88115293
   0.26856021  0.41309857  0.21448627
   0.41309857  0.26856021  0.78551373
   0.85546164  0.58690143  0.11884707
   0.73143979  0.14453836  0.45218040

 position of ions in cartesian coordinates  (Angst):
   1.15243680  1.99607909  1.81054175
   2.61168421  0.00000000  0.00000000
   1.15243680 -1.99607909  3.62108350
   2.15339861  2.49894645  2.97555077
   3.54573071  1.14349284  4.78609252
   1.67570740  0.61542467  1.16500902
   1.67570740 -0.61542467  4.26661623
   3.54573071 -1.14349284  0.64553273
   2.15339861 -2.49894645  2.45607448



--------------------------------------------------------------------------------------------------------


 k-point     1 :   0.0000 0.0000 0.0000  plane waves:    3051
 k-point     2 :   0.2000 0.0000 0.0000  plane waves:    3060
 k-point     3 :   0.4000 0.0000 0.0000  plane waves:    3044
 k-point     4 :   0.2000 0.2000 0.0000  plane waves:    3057
 k-point     5 :   0.4000 0.2000 0.0000  plane waves:    3049
 k-point     6 :   0.0000 0.0000 0.2500  plane waves:    3014
 k-point     7 :   0.2000 0.0000 0.2500  plane waves:    3058
 k-point     8 :   0.0000 0.2000 0.2500  plane waves:    3058
 k-point     9 :   0.4000 0.0000 0.2500  plane waves:    3074
 k-point    10 :   0.0000 0.4000 0.2500  plane waves:    3074
 k-point    11 :   0.2000 0.2000 0.2500  plane waves:    3059
 k-point    12 :   0.4000 0.2000 0.2500  plane waves:    3060
 k-point    13 :   0.0000 0.0000 0.5000  plane waves:    3068
 k-point    14 :   0.2000 0.0000 0.5000  plane waves:    3052
 k-point    15 :   0.4000 0.0000 0.5000  plane waves:    3074
 k-point    16 :   0.2000 0.2000 0.5000  plane waves:    3054
 k-point    17 :   0.4000 0.2000 0.5000  plane waves:    3072

 maximum and minimum number of plane-waves per node :      3074     3014

 maximum number of plane-waves:      3074
 maximum index in each direction: 
   IXMAX=    9   IYMAX=    9   IZMAX=   10
   IXMIN=   -9   IYMIN=   -9   IZMIN=  -10


 serial   3D FFT for wavefunctions
 parallel 3D FFT for charge:
    minimum data exchange during FFTs selected (reduces bandwidth)


 total amount of memory used by VASP MPI-rank0    46097. kBytes
=======================================================================

   base      :      30000. kBytes
   nonl-proj :       7145. kBytes
   fftplans  :       1570. kBytes
   grid      :       4774. kBytes
   one-center:         27. kBytes
   wavefun   :       2581. kBytes

     INWAV:  cpu time     10.9138: real time     24.9374
 Broyden mixing: mesh for mixing (old mesh)
   NGX = 19   NGY = 19   NGZ = 21
  (NGX  = 80   NGY  = 80   NGZ  = 80)
  gives a total of   7581 points

 charge density for first step will be calculated from the start-wavefunctions


--------------------------------------------------------------------------------------------------------


 Maximum index for augmentation-charges         1576 (set IRDMAX)


--------------------------------------------------------------------------------------------------------


 initial charge from wavefunction
 First call to EWALD:  gamma=   0.366
 Maximum number of real-space cells 3x 3x 3
 Maximum number of reciprocal cells 3x 3x 3

    FEWALD:  cpu time      0.3516: real time      0.7413


--------------------------------------- Ionic step        1  -------------------------------------------




--------------------------------------- Iteration      1(   1)  ---------------------------------------


    POTLOK:  cpu time      0.6680: real time      1.5386
    SETDIJ:  cpu time      0.1567: real time      0.3696
     EDDAV:  cpu time    119.6435: real time    263.2326
       DOS:  cpu time      0.2550: real time      0.5674
    CHARGE:  cpu time      1.3202: real time      2.9122
    MIXING:  cpu time      0.2291: real time      0.4709
    --------------------------------------------
      LOOP:  cpu time    122.2726: real time    269.0912

 eigenvalue-minimisations  :  1246
 total energy-change (2. order) :-0.7105409E+02  (-0.5086473E-08)
 number of electron      48.0000003 magnetization 
 augmentation part        3.5532825 magnetization 

 Broyden mixing:
  rms(total) = 0.15452E-04    rms(broyden)= 0.15451E-04
  rms(prec ) = 0.21565E-04
  weight for this iteration     100.00

 Free energy of the ion-electron system (eV)
  ---------------------------------------------------
  alpha Z        PSCENC =        69.31646906
  Ewald energy   TEWEN  =     -1890.11586297
  -Hartree energ DENC   =     -1067.48364881
  -exchange      EXHF   =         0.00000000
  -V(xc)+E(xc)   XCENC  =       150.52692028
  PAW double counting   =      7961.85424660    -7922.22756307
  entropy T*S    EENTRO =        -0.00000000
  eigenvalues    EBANDS =      -276.27162400
  atomic energy  EATOM  =      2903.34697324
  Solvation  Ediel_sol  =         0.00000000
  ---------------------------------------------------
  free energy    TOTEN  =       -71.05408968 eV

  energy without entropy =      -71.05408968  energy(sigma->0) =      -71.05408968


--------------------------------------------------------------------------------------------------------




--------------------------------------- Iteration      1(   2)  ---------------------------------------


    POTLOK:  cpu time      0.6802: real time      1.4714
    SETDIJ:  cpu time      0.1358: real time      0.2968
     EDDAV:  cpu time     88.3850: real time    182.7678
       DOS:  cpu time      0.1985: real time      0.4171
    --------------------------------------------
      LOOP:  cpu time     89.3995: real time    184.9531

 eigenvalue-minimisations  :   882
 total energy-change (2. order) :-0.9113137E-09  (-0.4199499E-09)
 number of electron      48.0000003 magnetization 
 augmentation part        3.5532825 magnetization 

 Free energy of the ion-electron system (eV)
  ---------------------------------------------------
  alpha Z        PSCENC =        69.31646906
  Ewald energy   TEWEN  =     -1890.11586297
  -Hartree energ DENC   =     -1067.48355430
  -exchange      EXHF   =         0.00000000
  -V(xc)+E(xc)   XCENC  =       150.52691010
  PAW double counting   =      7961.82904875    -7922.20236367
  entropy T*S    EENTRO =        -0.00000000
  eigenvalues    EBANDS =      -276.27170988
  atomic energy  EATOM  =      2903.34697324
  Solvation  Ediel_sol  =         0.00000000
  ---------------------------------------------------
  free energy    TOTEN  =       -71.05408968 eV

  energy without entropy =      -71.05408968  energy(sigma->0) =      -71.05408968


--------------------------------------------------------------------------------------------------------




 average (electrostatic) potential at core
  the test charge radii are     0.9892  0.7215
  (the norm of the test charge is              1.0000)
       1 -86.4871       2 -86.4871       3 -86.4871       4 -72.4221       5 -72.4221
       6 -72.4221       7 -72.4221       8 -72.4221       9 -72.4221



 E-fermi :   1.2466     XC(G=0):  -9.1881     alpha+bet :-10.2795

 val. band max:        1.0474457744   @ k =   0.4000   0.2000   0.0000
 cond. band min:       7.0021697615   @ k =   0.0000   0.0000   0.0000
 fundamental gap:      5.9547239871
 Fermi energy:         1.2465678231

 k-point     1 :       0.0000    0.0000    0.0000
  band No.  band energies     occupation 
      1     -18.3510      2.00000
      2     -16.8397      2.00000
      3     -16.8397      2.00000
      4     -16.1877      2.00000
      5     -16.1610      2.00000
      6     -16.1610      2.00000
      7      -7.1761      2.00000
      8      -7.1761      2.00000
      9      -4.3605      2.00000
     10      -4.3371      2.00000
     11      -4.1527      2.00000
     12      -4.1527      2.00000
     13      -1.8618      2.00000
     14      -1.8618      2.00000
     15      -1.6164      2.00000
     16      -1.3823      2.00000
     17      -0.4208      2.00000
     18      -0.4208      2.00000
     19      -0.3932      2.00000
     20       0.0585      2.00000
     21       0.0585      2.00000
     22       0.3815      2.00000
     23       0.7523      2.00000
     24       0.7523      2.00000
     25       7.0022      0.00000
     26      10.3335      0.00000
     27      10.3335      0.00000
     28      10.7777      0.00000
     29      10.7777      0.00000
     30      11.9872      0.00000
     31      12.6621      0.00000
     32      13.2522      0.00000
     33      13.6537      0.00000
     34      13.6537      0.00000
     35      14.3138      0.00000
     36      14.3138      0.00000
     37      15.1210      0.00000
     38      15.9397      0.00000
     39      15.9398      0.00000
     40      15.9398      0.00000
     41      16.0785      0.00000
     42      16.0785      0.00000

 k-point     2 :       0.2000    0.0000    0.0000
  band No.  band energies     occupation 
      1     -18.2354      2.00000
      2     -16.9679      2.00000
      3     -16.8221      2.00000
      4     -16.2255      2.00000
      5     -16.1843      2.00000
      6     -16.1657      2.00000
      7      -7.2274      2.00000
      8      -6.9209      2.00000
      9      -4.3935      2.00000
     10      -4.3747      2.00000
     11      -4.2927      2.00000
     12      -3.9478      2.00000
     13      -2.0211      2.00000
     14      -1.7790      2.00000
     15      -1.5806      2.00000
     16      -1.1677      2.00000
     17      -0.7939      2.00000
     18      -0.4713      2.00000
     19      -0.4174      2.00000
     20      -0.0120      2.00000
     21       0.0652      2.00000
     22       0.2582      2.00000
     23       0.8139      2.00000
     24       0.8678      2.00000
     25       7.5978      0.00000
     26      10.3101      0.00000
     27      10.3795      0.00000
     28      10.8351      0.00000
     29      10.9891      0.00000
     30      12.0395      0.00000
     31      12.2384      0.00000
     32      13.0632      0.00000
     33      13.4218      0.00000
     34      13.5509      0.00000
     35      14.1508      0.00000
     36      14.4700      0.00000
     37      14.8953      0.00000
     38      15.6642      0.00000
     39      15.9358      0.00000
     40      16.0701      0.00000
     41      16.1153      0.00000
     42      16.2442      0.00000

 k-point     3 :       0.4000    0.0000    0.0000
  band No.  band energies     occupation 
      1     -17.9503      2.00000
      2     -17.2942      2.00000
      3     -16.7909      2.00000
      4     -16.2571      2.00000
      5     -16.2166      2.00000
      6     -16.1864      2.00000
      7      -7.3060      2.00000
      8      -6.4164      2.00000
      9      -4.7348      2.00000
     10      -4.3795      2.00000
     11      -4.3239      2.00000
     12      -3.6049      2.00000
     13      -2.0593      2.00000
     14      -1.7416      2.00000
     15      -1.5865      2.00000
     16      -1.2541      2.00000
     17      -0.9899      2.00000
     18      -0.6441      2.00000
     19      -0.5445      2.00000
     20      -0.0406      2.00000
     21       0.0386      2.00000
     22       0.2675      2.00000
     23       0.8021      2.00000
     24       1.0043      2.00000
     25       8.8627      0.00000
     26      10.2215      0.00000
     27      10.5459      0.00000
     28      10.8860      0.00000
     29      11.4884      0.00000
     30      11.5690      0.00000
     31      12.0731      0.00000
     32      12.8350      0.00000
     33      12.9865      0.00000
     34      13.5777      0.00000
     35      13.6732      0.00000
     36      13.9944      0.00000
     37      14.4730      0.00000
     38      15.3741      0.00000
     39      15.8367      0.00000
     40      16.1223      0.00000
     41      16.4755      0.00000
     42      16.5608      0.00000

 k-point     4 :       0.2000    0.2000    0.0000
  band No.  band energies     occupation 
      1     -18.0255      2.00000
      2     -17.2000      2.00000
      3     -16.8108      2.00000
      4     -16.2510      2.00000
      5     -16.2122      2.00000
      6     -16.1784      2.00000
      7      -7.3082      2.00000
      8      -6.4797      2.00000
      9      -4.7987      2.00000
     10      -4.3649      2.00000
     11      -4.2188      2.00000
     12      -3.6830      2.00000
     13      -2.0356      2.00000
     14      -1.7923      2.00000
     15      -1.4985      2.00000
     16      -1.1848      2.00000
     17      -1.0756      2.00000
     18      -0.6229      2.00000
     19      -0.3390      2.00000
     20      -0.2571      2.00000
     21       0.0950      2.00000
     22       0.2808      2.00000
     23       0.7995      2.00000
     24       0.9906      2.00000
     25       8.5287      0.00000
     26      10.3771      0.00000
     27      10.5069      0.00000
     28      11.0090      0.00000
     29      11.1708      0.00000
     30      11.7020      0.00000
     31      11.9682      0.00000
     32      12.8921      0.00000
     33      13.3638      0.00000
     34      13.3738      0.00000
     35      13.7193      0.00000
     36      14.1720      0.00000
     37      14.4979      0.00000
     38      15.4727      0.00000
     39      15.6347      0.00000
     40      16.2460      0.00000
     41      16.4829      0.00000
     42      16.5409      0.00000

 k-point     5 :       0.4000    0.2000    0.0000
  band No.  band energies     occupation 
      1     -17.7722      2.00000
      2     -17.4712      2.00000
      3     -16.8086      2.00000
      4     -16.2590      2.00000
      5     -16.2171      2.00000
      6     -16.1961      2.00000
      7      -7.3601      2.00000
      8      -6.0292      2.00000
      9      -5.2200      2.00000
     10      -4.3032      2.00000
     11      -4.2371      2.00000
     12      -3.4855      2.00000
     13      -1.9393      2.00000
     14      -1.8342      2.00000
     15      -1.7375      2.00000
     16      -1.0983      2.00000
     17      -0.9869      2.00000
     18      -0.7241      2.00000
     19      -0.6123      2.00000
     20      -0.1923      2.00000
     21      -0.0443      2.00000
     22       0.4786      2.00000
     23       0.7284      2.00000
     24       1.0474      2.00000
     25       9.5295      0.00000
     26      10.0810      0.00000
     27      10.5545      0.00000
     28      11.0472      0.00000
     29      11.5921      0.00000
     30      11.6076      0.00000
     31      11.9865      0.00000
     32      12.1067      0.00000
     33      12.9935      0.00000
     34      13.4595      0.00000
     35      13.7611      0.00000
     36      13.9790      0.00000
     37      14.1581      0.00000
     38      15.4105      0.00000
     39      15.5495      0.00000
     40      16.2816      0.00000
     41      16.4886      0.00000
     42      16.6765      0.00000

 k-point     6 :       0.0000    0.0000    0.2500
  band No.  band energies     occupation 
      1     -18.2306      2.00000
      2     -17.3903      2.00000
      3     -16.3905      2.00000
      4     -16.1865      2.00000
      5     -16.1744      2.00000
      6     -16.1459      2.00000
      7      -7.9633      2.00000
      8      -6.1483      2.00000
      9      -4.5897      2.00000
     10      -4.4376      2.00000
     11      -4.4034      2.00000
     12      -3.7780      2.00000
     13      -1.9312      2.00000
     14      -1.6367      2.00000
     15      -1.5395      2.00000
     16      -1.1919      2.00000
     17      -0.6954      2.00000
     18      -0.5361      2.00000
     19      -0.4393      2.00000
     20      -0.4157      2.00000
     21      -0.0051      2.00000
     22       0.5316      2.00000
     23       0.8369      2.00000
     24       0.9662      2.00000
     25       7.5995      0.00000
     26      10.1340      0.00000
     27      10.2688      0.00000
     28      10.3041      0.00000
     29      11.2320      0.00000
     30      11.7901      0.00000
     31      12.2353      0.00000
     32      13.1827      0.00000
     33      13.1930      0.00000
     34      13.6687      0.00000
     35      14.1583      0.00000
     36      14.7960      0.00000
     37      14.8802      0.00000
     38      15.3021      0.00000
     39      15.9469      0.00000
     40      16.2760      0.00000
     41      16.3062      0.00000
     42      16.6120      0.00000

 k-point     7 :       0.2000    0.0000    0.2500
  band No.  band energies     occupation 
      1     -18.1252      2.00000
      2     -17.3734      2.00000
      3     -16.5125      2.00000
      4     -16.2149      2.00000
      5     -16.2062      2.00000
      6     -16.1600      2.00000
      7      -7.7373      2.00000
      8      -6.1894      2.00000
      9      -4.8105      2.00000
     10      -4.3810      2.00000
     11      -4.1565      2.00000
     12      -3.8581      2.00000
     13      -2.0697      2.00000
     14      -1.6224      2.00000
     15      -1.5206      2.00000
     16      -1.1767      2.00000
     17      -0.8910      2.00000
     18      -0.5388      2.00000
     19      -0.4211      2.00000
     20      -0.2689      2.00000
     21       0.1076      2.00000
     22       0.3873      2.00000
     23       0.7625      2.00000
     24       0.9692      2.00000
     25       8.1002      0.00000
     26      10.1667      0.00000
     27      10.3359      0.00000
     28      10.5166      0.00000
     29      11.3014      0.00000
     30      11.6700      0.00000
     31      12.3828      0.00000
     32      12.5832      0.00000
     33      13.3798      0.00000
     34      13.5291      0.00000
     35      13.7495      0.00000
     36      14.3174      0.00000
     37      14.9878      0.00000
     38      15.2436      0.00000
     39      15.9784      0.00000
     40      16.3140      0.00000
     41      16.5503      0.00000
     42      16.7261      0.00000

 k-point     8 :       0.0000    0.2000    0.2500
  band No.  band energies     occupation 
      1     -18.1264      2.00000
      2     -17.3677      2.00000
      3     -16.5287      2.00000
      4     -16.2220      2.00000
      5     -16.1783      2.00000
      6     -16.1689      2.00000
      7      -7.7388      2.00000
      8      -6.1900      2.00000
      9      -4.8131      2.00000
     10      -4.3878      2.00000
     11      -4.1731      2.00000
     12      -3.8175      2.00000
     13      -2.0413      2.00000
     14      -1.6096      2.00000
     15      -1.5284      2.00000
     16      -1.2698      2.00000
     17      -0.9391      2.00000
     18      -0.4532      2.00000
     19      -0.3790      2.00000
     20      -0.2900      2.00000
     21       0.1380      2.00000
     22       0.3427      2.00000
     23       0.7087      2.00000
     24       1.0263      2.00000
     25       8.0796      0.00000
     26      10.2431      0.00000
     27      10.4343      0.00000
     28      10.5191      0.00000
     29      11.2250      0.00000
     30      11.6225      0.00000
     31      12.0822      0.00000
     32      12.6652      0.00000
     33      13.4778      0.00000
     34      13.5756      0.00000
     35      13.8458      0.00000
     36      14.3512      0.00000
     37      14.9273      0.00000
     38      15.3606      0.00000
     39      16.0406      0.00000
     40      16.3245      0.00000
     41      16.5034      0.00000
     42      16.6918      0.00000

 k-point     9 :       0.4000    0.0000    0.2500
  band No.  band energies     occupation 
      1     -17.8877      2.00000
      2     -17.3735      2.00000
      3     -16.7801      2.00000
      4     -16.2575      2.00000
      5     -16.2282      2.00000
      6     -16.1796      2.00000
      7      -7.3242      2.00000
      8      -6.2440      2.00000
      9      -5.0749      2.00000
     10      -4.3279      2.00000
     11      -4.0437      2.00000
     12      -3.7876      2.00000
     13      -2.1413      2.00000
     14      -1.8691      2.00000
     15      -1.4475      2.00000
     16      -1.2069      2.00000
     17      -0.8509      2.00000
     18      -0.6714      2.00000
     19      -0.4481      2.00000
     20      -0.0773      2.00000
     21       0.1682      2.00000
     22       0.2464      2.00000
     23       0.7238      2.00000
     24       0.8990      2.00000
     25       9.2068      0.00000
     26      10.2000      0.00000
     27      10.4361      0.00000
     28      11.0657      0.00000
     29      11.3341      0.00000
     30      11.5190      0.00000
     31      12.1963      0.00000
     32      12.3691      0.00000
     33      12.9209      0.00000
     34      13.1610      0.00000
     35      13.4108      0.00000
     36      13.8695      0.00000
     37      14.5978      0.00000
     38      15.0304      0.00000
     39      16.2192      0.00000
     40      16.3648      0.00000
     41      16.7291      0.00000
     42      16.9864      0.00000

 k-point    10 :       0.0000    0.4000    0.2500
  band No.  band energies     occupation 
      1     -17.8931      2.00000
      2     -17.3528      2.00000
      3     -16.8081      2.00000
      4     -16.2532      2.00000
      5     -16.2156      2.00000
      6     -16.1833      2.00000
      7      -7.3270      2.00000
      8      -6.2464      2.00000
      9      -5.0731      2.00000
     10      -4.3590      2.00000
     11      -4.0291      2.00000
     12      -3.7442      2.00000
     13      -2.0826      2.00000
     14      -1.9047      2.00000
     15      -1.4359      2.00000
     16      -1.3657      2.00000
     17      -0.9013      2.00000
     18      -0.5533      2.00000
     19      -0.3371      2.00000
     20      -0.0642      2.00000
     21       0.0016      2.00000
     22       0.4038      2.00000
     23       0.5462      2.00000
     24       0.9943      2.00000
     25       9.1538      0.00000
     26      10.2535      0.00000
     27      10.6696      0.00000
     28      11.1419      0.00000
     29      11.3869      0.00000
     30      11.4838      0.00000
     31      11.5912      0.00000
     32      12.3383      0.00000
     33      12.8283      0.00000
     34      13.2380      0.00000
     35      13.7723      0.00000
     36      14.1045      0.00000
     37      14.3448      0.00000
     38      15.4144      0.00000
     39      16.0440      0.00000
     40      16.2582      0.00000
     41      16.4336      0.00000
     42      16.9438      0.00000

 k-point    11 :       0.2000    0.2000    0.2500
  band No.  band energies     occupation 
      1     -17.9466      2.00000
      2     -17.3591      2.00000
      3     -16.7331      2.00000
      4     -16.2451      2.00000
      5     -16.2213      2.00000
      6     -16.1798      2.00000
      7      -7.4132      2.00000
      8      -6.2027      2.00000
      9      -5.0898      2.00000
     10      -4.3252      2.00000
     11      -4.0248      2.00000
     12      -3.8094      2.00000
     13      -2.1181      2.00000
     14      -1.7358      2.00000
     15      -1.5603      2.00000
     16      -1.2390      2.00000
     17      -0.9176      2.00000
     18      -0.5665      2.00000
     19      -0.3829      2.00000
     20      -0.1130      2.00000
     21       0.1287      2.00000
     22       0.2825      2.00000
     23       0.6705      2.00000
     24       0.9499      2.00000
     25       8.8816      0.00000
     26      10.2629      0.00000
     27      10.6515      0.00000
     28      10.9221      0.00000
     29      11.3007      0.00000
     30      11.4722      0.00000
     31      11.8580      0.00000
     32      12.6212      0.00000
     33      13.0190      0.00000
     34      13.2221      0.00000
     35      13.6648      0.00000
     36      13.9514      0.00000
     37      14.4401      0.00000
     38      15.2869      0.00000
     39      15.9987      0.00000
     40      16.3438      0.00000
     41      16.7648      0.00000
     42      17.1353      0.00000

 k-point    12 :       0.4000    0.2000    0.2500
  band No.  band energies     occupation 
      1     -17.7768      2.00000
      2     -17.3922      2.00000
      3     -16.8831      2.00000
      4     -16.2588      2.00000
      5     -16.2401      2.00000
      6     -16.1900      2.00000
      7      -7.1951      2.00000
      8      -6.1312      2.00000
      9      -5.3542      2.00000
     10      -4.3039      2.00000
     11      -4.0276      2.00000
     12      -3.6956      2.00000
     13      -2.1007      2.00000
     14      -1.8824      2.00000
     15      -1.6055      2.00000
     16      -1.0774      2.00000
     17      -0.8904      2.00000
     18      -0.7555      2.00000
     19      -0.2986      2.00000
     20      -0.1941      2.00000
     21       0.0969      2.00000
     22       0.4251      2.00000
     23       0.5980      2.00000
     24       0.8922      2.00000
     25       9.7150      0.00000
     26      10.2217      0.00000
     27      10.6480      0.00000
     28      11.0595      0.00000
     29      11.3589      0.00000
     30      11.6032      0.00000
     31      11.8895      0.00000
     32      12.2671      0.00000
     33      12.6620      0.00000
     34      13.0616      0.00000
     35      13.3526      0.00000
     36      13.7610      0.00000
     37      14.2211      0.00000
     38      15.3156      0.00000
     39      15.7341      0.00000
     40      16.5958      0.00000
     41      16.9017      0.00000
     42      17.1458      0.00000

 k-point    13 :       0.0000    0.0000    0.5000
  band No.  band energies     occupation 
      1     -17.8899      2.00000
      2     -17.8898      2.00000
      3     -16.2131      2.00000
      4     -16.1827      2.00000
      5     -16.1827      2.00000
      6     -16.1394      2.00000
      7      -8.2607      2.00000
      8      -5.1948      2.00000
      9      -5.1948      2.00000
     10      -4.5216      2.00000
     11      -4.5216      2.00000
     12      -3.5768      2.00000
     13      -1.6433      2.00000
     14      -1.6433      2.00000
     15      -1.5698      2.00000
     16      -0.9361      2.00000
     17      -0.9361      2.00000
     18      -0.7538      2.00000
     19      -0.7538      2.00000
     20      -0.4612      2.00000
     21      -0.1332      2.00000
     22       0.8471      2.00000
     23       0.8471      2.00000
     24       0.9683      2.00000
     25       8.9503      0.00000
     26       8.9503      0.00000
     27      10.0886      0.00000
     28      10.7315      0.00000
     29      10.7315      0.00000
     30      11.6884      0.00000
     31      12.6299      0.00000
     32      12.6299      0.00000
     33      12.7651      0.00000
     34      14.0312      0.00000
     35      14.0312      0.00000
     36      14.7827      0.00000
     37      14.7827      0.00000
     38      15.2413      0.00000
     39      15.4075      0.00000
     40      16.6148      0.00000
     41      16.7142      0.00000
     42      16.7142      0.00000

 k-point    14 :       0.2000    0.0000    0.5000
  band No.  band energies     occupation 
      1     -17.8592      2.00000
      2     -17.7685      2.00000
      3     -16.3736      2.00000
      4     -16.2319      2.00000
      5     -16.1900      2.00000
      6     -16.1599      2.00000
      7      -7.9715      2.00000
      8      -5.4857      2.00000
      9      -5.2616      2.00000
     10      -4.3904      2.00000
     11      -4.3207      2.00000
     12      -3.6571      2.00000
     13      -1.8627      2.00000
     14      -1.8432      2.00000
     15      -1.4637      2.00000
     16      -1.1181      2.00000
     17      -1.0082      2.00000
     18      -0.5662      2.00000
     19      -0.4740      2.00000
     20      -0.2974      2.00000
     21      -0.0446      2.00000
     22       0.6892      2.00000
     23       0.7172      2.00000
     24       0.9237      2.00000
     25       9.2031      0.00000
     26       9.2985      0.00000
     27      10.3045      0.00000
     28      10.7343      0.00000
     29      10.9161      0.00000
     30      11.6245      0.00000
     31      12.1403      0.00000
     32      12.5276      0.00000
     33      13.0255      0.00000
     34      13.4766      0.00000
     35      13.7042      0.00000
     36      14.5035      0.00000
     37      14.6780      0.00000
     38      15.2116      0.00000
     39      16.2688      0.00000
     40      16.4442      0.00000
     41      16.6770      0.00000
     42      16.7789      0.00000

 k-point    15 :       0.4000    0.0000    0.5000
  band No.  band energies     occupation 
      1     -17.8066      2.00000
      2     -17.4594      2.00000
      3     -16.7901      2.00000
      4     -16.2719      2.00000
      5     -16.2086      2.00000
      6     -16.1802      2.00000
      7      -7.3365      2.00000
      8      -6.0434      2.00000
      9      -5.3220      2.00000
     10      -4.2583      2.00000
     11      -4.0253      2.00000
     12      -3.8295      2.00000
     13      -2.0958      2.00000
     14      -2.0839      2.00000
     15      -1.3359      2.00000
     16      -1.1329      2.00000
     17      -0.9947      2.00000
     18      -0.4411      2.00000
     19      -0.2668      2.00000
     20      -0.1101      2.00000
     21       0.1216      2.00000
     22       0.3358      2.00000
     23       0.4934      2.00000
     24       0.8841      2.00000
     25       9.7472      0.00000
     26      10.1299      0.00000
     27      10.6155      0.00000
     28      10.8255      0.00000
     29      11.2828      0.00000
     30      11.6498      0.00000
     31      11.6874      0.00000
     32      12.2917      0.00000
     33      12.4153      0.00000
     34      12.9024      0.00000
     35      13.2737      0.00000
     36      13.9886      0.00000
     37      14.7347      0.00000
     38      15.1213      0.00000
     39      16.1854      0.00000
     40      16.5646      0.00000
     41      16.7072      0.00000
     42      17.5435      0.00000

 k-point    16 :       0.2000    0.2000    0.5000
  band No.  band energies     occupation 
      1     -17.8117      2.00000
      2     -17.5518      2.00000
      3     -16.6742      2.00000
      4     -16.2571      2.00000
      5     -16.2018      2.00000
      6     -16.1953      2.00000
      7      -7.4849      2.00000
      8      -5.8732      2.00000
      9      -5.3774      2.00000
     10      -4.2135      2.00000
     11      -4.1360      2.00000
     12      -3.7909      2.00000
     13      -2.0896      2.00000
     14      -1.9660      2.00000
     15      -1.3553      2.00000
     16      -1.2601      2.00000
     17      -0.9062      2.00000
     18      -0.5387      2.00000
     19      -0.2598      2.00000
     20      -0.0811      2.00000
     21       0.0566      2.00000
     22       0.4379      2.00000
     23       0.6130      2.00000
     24       0.7841      2.00000
     25       9.6024      0.00000
     26       9.9068      0.00000
     27      10.5330      0.00000
     28      10.9455      0.00000
     29      11.1961      0.00000
     30      11.6362      0.00000
     31      11.6956      0.00000
     32      12.3645      0.00000
     33      12.6217      0.00000
     34      13.0951      0.00000
     35      13.3034      0.00000
     36      14.0577      0.00000
     37      14.5344      0.00000
     38      15.1035      0.00000
     39      16.1450      0.00000
     40      16.6838      0.00000
     41      16.9031      0.00000
     42      17.4268      0.00000

 k-point    17 :       0.4000    0.2000    0.5000
  band No.  band energies     occupation 
      1     -17.7788      2.00000
      2     -17.2825      2.00000
      3     -16.9914      2.00000
      4     -16.2783      2.00000
      5     -16.2177      2.00000
      6     -16.2092      2.00000
      7      -6.9529      2.00000
      8      -6.3355      2.00000
      9      -5.4378      2.00000
     10      -4.1397      2.00000
     11      -4.0117      2.00000
     12      -3.8957      2.00000
     13      -2.1882      2.00000
     14      -1.9339      2.00000
     15      -1.5331      2.00000
     16      -0.9946      2.00000
     17      -0.9202      2.00000
     18      -0.6922      2.00000
     19      -0.0047      2.00000
     20       0.0245      2.00000
     21       0.1910      2.00000
     22       0.2500      2.00000
     23       0.4388      2.00000
     24       0.6849      2.00000
     25       9.9147      0.00000
     26      10.5940      0.00000
     27      10.8155      0.00000
     28      10.9310      0.00000
     29      11.1403      0.00000
     30      11.5381      0.00000
     31      11.6894      0.00000
     32      12.1881      0.00000
     33      12.5391      0.00000
     34      12.8230      0.00000
     35      13.0008      0.00000
     36      13.2953      0.00000
     37      14.6587      0.00000
     38      15.0725      0.00000
     39      15.8436      0.00000
     40      16.8900      0.00000
     41      17.1908      0.00000
     42      17.8876      0.00000


--------------------------------------------------------------------------------------------------------


 soft charge-density along one line, spin component           1
         0         1         2         3         4         5         6         7         8         9
 total charge-density along one line

 pseudopotential strength for first ion, spin component:           1
 18.764  26.181  -0.001   0.000  -0.000  -0.001   0.000  -0.001
 26.181  36.536  -0.001   0.000  -0.001  -0.002   0.000  -0.001
 -0.001  -0.001   4.218   0.000   0.000   7.863   0.000   0.000
  0.000   0.000   0.000   4.218  -0.000   0.000   7.863  -0.000
 -0.000  -0.001   0.000  -0.000   4.218   0.000  -0.000   7.863
 -0.001  -0.002   7.863   0.000   0.000  14.669   0.001   0.000
  0.000   0.000   0.000   7.863  -0.000   0.001  14.668  -0.001
 -0.001  -0.001   0.000  -0.000   7.863   0.000  -0.001  14.668
 total augmentation occupancy for first ion, spin component:           1
 13.952  -7.433  -0.043   0.000  -0.025   0.016  -0.000   0.009
 -7.433   4.086   0.033  -0.000   0.019  -0.011   0.000  -0.006
 -0.043   0.033   6.296   0.044   0.005  -2.094  -0.017  -0.012
  0.000  -0.000   0.044   6.392  -0.076  -0.017  -2.124   0.029
 -0.025   0.019   0.005  -0.076   6.291  -0.012   0.030  -2.080
  0.016  -0.011  -2.094  -0.017  -0.012   0.715   0.007   0.006
 -0.000   0.000  -0.017  -2.124   0.030   0.007   0.726  -0.012
  0.009  -0.006  -0.012   0.029  -2.080   0.006  -0.012   0.709


------------------------ aborting loop because EDIFF is reached ----------------------------------------


    CHARGE:  cpu time      1.3108: real time      2.5718
    FORLOC:  cpu time      0.0145: real time      0.0207
    FORNL :  cpu time      0.4137: real time      1.0875
    STRESS:  cpu time      1.2897: real time      2.7840
    FORCOR:  cpu time      0.6579: real time      1.7009
    FORHAR:  cpu time      0.2768: real time      0.5588
    MIXING:  cpu time      0.1379: real time      0.2757
    OFIELD:  cpu time      0.0000: real time      0.0000

  FORCE on cell =-STRESS in cart. coord.  units (eV):
  Direction    XX          YY          ZZ          XY          YZ          ZX
  --------------------------------------------------------------------------------------
  Alpha Z    69.31647    69.31647    69.31647
  Ewald    -650.35106  -650.35106  -589.41750     0.00000     0.00000     0.00000
  Hartree   345.39778   345.39779   376.68800    -0.00000    -0.00001    -0.00000
  E(xc)    -225.37277  -225.37277  -225.34035    -0.00000    -0.00000     0.00000
  Local    -411.65405  -411.65381  -502.36571    -0.00000     0.00002     0.00000
  n-local   -51.71766   -51.95816   -50.91620    -0.10145     0.08077    -0.01766
  augment    27.21143    27.21120    27.06061     0.00000     0.00001     0.00000
  Kinetic   900.78115   901.92960   898.92795     0.41448    -0.06344    -0.10848
  Fock        0.00000     0.00000     0.00000     0.00000     0.00000     0.00000
  -------------------------------------------------------------------------------------
  Total       4.06527     4.06527     3.95327     0.00000     0.00000     0.00000
  in kB      57.28185    57.28185    55.70369     0.00000     0.00000     0.00000
  external pressure =       56.76 kB  Pullay stress =        0.00 kB


 VOLUME and BASIS-vectors are now :
 -----------------------------------------------------------------------------
  energy-cutoff  :      520.00
  volume of cell :      113.71
      direct lattice vectors                 reciprocal lattice vectors
     2.458278904 -4.257863960  0.000000000     0.203394334 -0.117429773  0.000000000
     2.458278904  4.257863960  0.000000000     0.203394334  0.117429773 -0.000000000
     0.000000000  0.000000000  5.431625250    -0.000000000  0.000000000  0.184106958

  length of vectors
     4.916557807  4.916557807  5.431625250     0.234859547  0.234859547  0.184106958


 FORCES acting on ions
    electron-ion (+dipol)            ewald-force                    non-local-force                 convergence-correction
 -----------------------------------------------------------------------------------------------
   0.128E+01 0.221E+01 -.105E-04   -.114E+01 -.198E+01 -.526E-11   -.119E+00 -.205E+00 0.140E-16   -.951E-05 -.165E-04 0.532E-10
   -.256E+01 -.249E-07 0.224E-07   0.228E+01 0.488E-14 -.243E-12   0.237E+00 0.320E-17 0.213E-17   0.190E-04 0.300E-14 0.118E-13
   0.128E+01 -.221E+01 0.106E-04   -.114E+01 0.198E+01 0.107E-11   -.119E+00 0.205E+00 0.166E-16   -.951E-05 0.165E-04 -.532E-10
   0.283E+02 -.655E+02 -.321E+02   -.380E+02 0.811E+02 0.424E+02   0.965E+01 -.154E+02 -.102E+02   0.832E-05 0.204E-03 0.825E-04
   -.708E+02 0.827E+01 -.321E+02   0.892E+02 -.761E+01 0.424E+02   -.182E+02 -.659E+00 -.102E+02   0.173E-03 -.109E-03 0.825E-04
   0.426E+02 0.572E+02 -.321E+02   -.512E+02 -.734E+02 0.424E+02   0.851E+01 0.160E+02 -.102E+02   -.181E-03 -.948E-04 0.825E-04
   0.426E+02 -.572E+02 0.321E+02   -.512E+02 0.734E+02 -.424E+02   0.851E+01 -.160E+02 0.102E+02   -.181E-03 0.948E-04 -.825E-04
   -.708E+02 -.827E+01 0.321E+02   0.892E+02 0.761E+01 -.424E+02   -.182E+02 0.659E+00 0.102E+02   0.173E-03 0.109E-03 -.825E-04
   0.283E+02 0.655E+02 0.321E+02   -.380E+02 -.811E+02 -.424E+02   0.965E+01 0.154E+02 0.102E+02   0.832E-05 -.204E-03 -.825E-04
 -----------------------------------------------------------------------------------------------
   -.718E-05 0.989E-07 0.407E-07   -.284E-13 0.000E+00 -.711E-14   -.533E-14 0.355E-14 0.000E+00   -.123E-09 0.559E-13 0.897E-13


 POSITION                                       TOTAL-FORCE (eV/Angst)
 -----------------------------------------------------------------------------------
      1.15244      1.99608      1.81054         0.017611      0.030503     -0.000000
      2.61168      0.00000      0.00000        -0.035222     -0.000000     -0.000000
      1.15244     -1.99608      3.62108         0.017611     -0.030503     -0.000000
      2.15340      2.49895      2.97555        -0.111468      0.208816      0.140467
      3.54573      1.14349      4.78609         0.236574     -0.007873      0.140467
      1.67571      0.61542      1.16501        -0.125105     -0.200942      0.140467
      1.67571     -0.61542      4.26662        -0.125105      0.200942     -0.140467
      3.54573     -1.14349      0.64553         0.236574      0.007873     -0.140467
      2.15340     -2.49895      2.45607        -0.111468     -0.208816     -0.140467
 -----------------------------------------------------------------------------------
    total drift:                               -0.000007      0.000000      0.000000


--------------------------------------------------------------------------------------------------------



  FREE ENERGIE OF THE ION-ELECTRON SYSTEM (eV)
  ---------------------------------------------------
  free  energy   TOTEN  =       -71.05408968 eV

  energy  without entropy=      -71.05408968  energy(sigma->0) =      -71.05408968



--------------------------------------------------------------------------------------------------------


    POTLOK:  cpu time      0.9535: real time      1.9675


--------------------------------------------------------------------------------------------------------


 Quasi-Newton relaxation of ions (Broydens 2nd method)
  g(Force)  = 0.221E-01   g(Stress)= 0.000E+00

 Reset! Starting new Quasi-Newton update for ions 


--------------------------------------------------------------------------------------------------------


    WAVPRE:  cpu time      3.7318: real time      7.9566
    FEWALD:  cpu time      0.2377: real time      0.4421
    ORTHCH:  cpu time      4.7652: real time     10.6253
     LOOP+:  cpu time    225.8487: real time    484.8037


--------------------------------------- Ionic step        2  -------------------------------------------




--------------------------------------- Iteration      2(   1)  ---------------------------------------


    POTLOK:  cpu time      0.6812: real time      1.6845
    SETDIJ:  cpu time      0.1627: real time      0.3229
     EDDAV:  cpu time    110.1290: real time    227.1287
       DOS:  cpu time      0.3576: real time      0.8863
    CHARGE:  cpu time      1.1014: real time      2.1079
    MIXING:  cpu time      0.2056: real time      0.4169
    --------------------------------------------
      LOOP:  cpu time    112.6375: real time    232.5473

 eigenvalue-minimisations  :  1428
 total energy-change (2. order) :-0.9775735E-02  (-0.5823169E+00)
 number of electron      48.0000003 magnetization 
 augmentation part        3.5422283 magnetization 

 Broyden mixing:
  rms(total) = 0.50492E-01    rms(broyden)= 0.50442E-01
  rms(prec ) = 0.70137E-01
  weight for this iteration     100.00

 Free energy of the ion-electron system (eV)
  ---------------------------------------------------
  alpha Z        PSCENC =        69.31646906
  Ewald energy   TEWEN  =     -1897.95792863
  -Hartree energ DENC   =     -1062.05460964
  -exchange      EXHF   =         0.00000000
  -V(xc)+E(xc)   XCENC  =       150.43029790
  PAW double counting   =      7961.78616814    -7922.15948659
  entropy T*S    EENTRO =        -0.00000000
  eigenvalues    EBANDS =      -273.77174889
  atomic energy  EATOM  =      2903.34697324
  Solvation  Ediel_sol  =         0.00000000
  ---------------------------------------------------
  free energy    TOTEN  =       -71.06386542 eV

  energy without entropy =      -71.06386542  energy(sigma->0) =      -71.06386542


--------------------------------------------------------------------------------------------------------




--------------------------------------- Iteration      2(   2)  ---------------------------------------


    POTLOK:  cpu time      0.7359: real time      1.7459
    SETDIJ:  cpu time      0.1883: real time      0.3667
     EDDAV:  cpu time    134.6003: real time    269.3206
       DOS:  cpu time      0.1896: real time      0.4386
    CHARGE:  cpu time      1.1677: real time      2.5468
    MIXING:  cpu time      0.3514: real time      0.7407
    --------------------------------------------
      LOOP:  cpu time    137.2332: real time    275.1593

 eigenvalue-minimisations  :  1918
 total energy-change (2. order) :-0.7932610E-02  (-0.1078710E-01)
 number of electron      48.0000003 magnetization 
 augmentation part        3.5450504 magnetization 

 Broyden mixing:
  rms(total) = 0.24056E-01    rms(broyden)= 0.24050E-01
  rms(prec ) = 0.37434E-01
  weight for this iteration     100.00

 eigenvalues of (default mixing * dielectric matrix)
  average eigenvalue GAMMA=   0.9648
  0.9648

 Free energy of the ion-electron system (eV)
  ---------------------------------------------------
  alpha Z        PSCENC =        69.31646906
  Ewald energy   TEWEN  =     -1897.95792863
  -Hartree energ DENC   =     -1060.95106512
  -exchange      EXHF   =         0.00000000
  -V(xc)+E(xc)   XCENC  =       150.36503012
  PAW double counting   =      7887.59066735    -7847.94952430
  entropy T*S    EENTRO =        -0.00000000
  eigenvalues    EBANDS =      -274.83241974
  atomic energy  EATOM  =      2903.34697324
  Solvation  Ediel_sol  =         0.00000000
  ---------------------------------------------------
  free energy    TOTEN  =       -71.07179803 eV

  energy without entropy =      -71.07179803  energy(sigma->0) =      -71.07179803


--------------------------------------------------------------------------------------------------------




--------------------------------------- Iteration      2(   3)  ---------------------------------------


    POTLOK:  cpu time      0.7803: real time      1.6467
    SETDIJ:  cpu time      0.2280: real time      0.6964
     EDDAV:  cpu time    129.4824: real time    257.8676
       DOS:  cpu time      0.1912: real time      0.3781
    CHARGE:  cpu time      0.9938: real time      2.0325
    MIXING:  cpu time      0.4083: real time      1.3253
    --------------------------------------------
      LOOP:  cpu time    132.0841: real time    263.9465

 eigenvalue-minimisations  :  1792
 total energy-change (2. order) : 0.1087362E-02  (-0.1089649E-03)
 number of electron      48.0000003 magnetization 
 augmentation part        3.5439415 magnetization 

 Broyden mixing:
  rms(total) = 0.12533E-01    rms(broyden)= 0.12532E-01
  rms(prec ) = 0.19040E-01
  weight for this iteration     100.00

 eigenvalues of (default mixing * dielectric matrix)
  average eigenvalue GAMMA=   1.5128
  1.0121  2.0136

 Free energy of the ion-electron system (eV)
  ---------------------------------------------------
  alpha Z        PSCENC =        69.31646906
  Ewald energy   TEWEN  =     -1897.95792863
  -Hartree energ DENC   =     -1060.88478640
  -exchange      EXHF   =         0.00000000
  -V(xc)+E(xc)   XCENC  =       150.36655656
  PAW double counting   =      7861.07803626    -7821.42368976
  entropy T*S    EENTRO =        -0.00000000
  eigenvalues    EBANDS =      -274.91234099
  atomic energy  EATOM  =      2903.34697324
  Solvation  Ediel_sol  =         0.00000000
  ---------------------------------------------------
  free energy    TOTEN  =       -71.07071066 eV

  energy without entropy =      -71.07071066  energy(sigma->0) =      -71.07071066


--------------------------------------------------------------------------------------------------------




--------------------------------------- Iteration      2(   4)  ---------------------------------------


    POTLOK:  cpu time      0.7429: real time      1.5675
    SETDIJ:  cpu time      0.2540: real time      0.5384
     EDDAV:  cpu time    156.6942: real time    321.2286
       DOS:  cpu time      0.2954: real time      0.6260
    CHARGE:  cpu time      1.5937: real time      3.1465
    MIXING:  cpu time      0.5897: real time      1.5942
    --------------------------------------------
      LOOP:  cpu time    160.1700: real time    328.7012

 eigenvalue-minimisations  :  1876
 total energy-change (2. order) : 0.2899561E-03  (-0.1225623E-03)
 number of electron      48.0000003 magnetization 
 augmentation part        3.5430318 magnetization 

 Broyden mixing:
  rms(total) = 0.26556E-02    rms(broyden)= 0.26545E-02
  rms(prec ) = 0.34230E-02
  weight for this iteration     100.00

 eigenvalues of (default mixing * dielectric matrix)
  average eigenvalue GAMMA=   1.3868
  2.1825  0.9889  0.9889

 Free energy of the ion-electron system (eV)
  ---------------------------------------------------
  alpha Z        PSCENC =        69.31646906
  Ewald energy   TEWEN  =     -1897.95792863
  -Hartree energ DENC   =     -1060.71943741
  -exchange      EXHF   =         0.00000000
  -V(xc)+E(xc)   XCENC  =       150.36157246
  PAW double counting   =      7833.00396776    -7793.33074760
  entropy T*S    EENTRO =        -0.00000000
  eigenvalues    EBANDS =      -275.09128959
  atomic energy  EATOM  =      2903.34697324
  Solvation  Ediel_sol  =         0.00000000
  ---------------------------------------------------
  free energy    TOTEN  =       -71.07042071 eV

  energy without entropy =      -71.07042071  energy(sigma->0) =      -71.07042071


--------------------------------------------------------------------------------------------------------




--------------------------------------- Iteration      2(   5)  ---------------------------------------


    POTLOK:  cpu time      1.0049: real time      2.0301
    SETDIJ:  cpu time      0.3210: real time      0.7410
     EDDAV:  cpu time    160.2730: real time    327.1249
       DOS:  cpu time      0.4805: real time      0.9764
    CHARGE:  cpu time      1.6327: real time      3.5650
    MIXING:  cpu time      0.5272: real time      1.0928
    --------------------------------------------
      LOOP:  cpu time    164.2394: real time    335.5302

 eigenvalue-minimisations  :  1554
 total energy-change (2. order) :-0.2180286E-04  (-0.2241039E-04)
 number of electron      48.0000003 magnetization 
 augmentation part        3.5435858 magnetization 

 Broyden mixing:
  rms(total) = 0.22118E-02    rms(broyden)= 0.22115E-02
  rms(prec ) = 0.25943E-02
  weight for this iteration     100.00

 eigenvalues of (default mixing * dielectric matrix)
  average eigenvalue GAMMA=   1.4214
  2.2291  0.9403  1.2582  1.2582

 Free energy of the ion-electron system (eV)
  ---------------------------------------------------
  alpha Z        PSCENC =        69.31646906
  Ewald energy   TEWEN  =     -1897.95792863
  -Hartree energ DENC   =     -1060.67201909
  -exchange      EXHF   =         0.00000000
  -V(xc)+E(xc)   XCENC  =       150.35808960
  PAW double counting   =      7828.57370470    -7788.89750070
  entropy T*S    EENTRO =        -0.00000000
  eigenvalues    EBANDS =      -275.13823070
  atomic energy  EATOM  =      2903.34697324
  Solvation  Ediel_sol  =         0.00000000
[...]
     33      12.6322      0.00000
     34      13.0784      0.00000
     35      13.7422      0.00000
     36      14.0453      0.00000
     37      14.1394      0.00000
     38      15.4254      0.00000
     39      15.9734      0.00000
     40      16.1861      0.00000
     41      16.4417      0.00000
     42      16.8360      0.00000

 k-point    11 :       0.2000    0.2000    0.2500
  band No.  band energies     occupation 
      1     -17.8458      2.00000
      2     -17.2640      2.00000
      3     -16.6542      2.00000
      4     -16.1832      2.00000
      5     -16.1565      2.00000
      6     -16.1174      2.00000
      7      -7.2922      2.00000
      8      -6.1067      2.00000
      9      -5.0032      2.00000
     10      -4.2330      2.00000
     11      -3.9296      2.00000
     12      -3.7122      2.00000
     13      -2.0674      2.00000
     14      -1.6821      2.00000
     15      -1.5058      2.00000
     16      -1.1804      2.00000
     17      -0.8500      2.00000
     18      -0.5077      2.00000
     19      -0.3013      2.00000
     20      -0.0614      2.00000
     21       0.1282      2.00000
     22       0.2994      2.00000
     23       0.6992      2.00000
     24       0.9557      2.00000
     25       8.7763      0.00000
     26      10.1419      0.00000
     27      10.5457      0.00000
     28      10.8200      0.00000
     29      11.2458      0.00000
     30      11.4117      0.00000
     31      11.7674      0.00000
     32      12.5258      0.00000
     33      12.8407      0.00000
     34      13.0581      0.00000
     35      13.5508      0.00000
     36      13.8473      0.00000
     37      14.3127      0.00000
     38      15.2021      0.00000
     39      15.9401      0.00000
     40      16.2997      0.00000
     41      16.7954      0.00000
     42      17.1275      0.00000

 k-point    12 :       0.4000    0.2000    0.2500
  band No.  band energies     occupation 
      1     -17.6744      2.00000
      2     -17.2970      2.00000
      3     -16.8032      2.00000
      4     -16.1964      2.00000
      5     -16.1760      2.00000
      6     -16.1288      2.00000
      7      -7.0817      2.00000
      8      -6.0368      2.00000
      9      -5.2696      2.00000
     10      -4.2079      2.00000
     11      -3.9314      2.00000
     12      -3.5955      2.00000
     13      -2.0479      2.00000
     14      -1.8283      2.00000
     15      -1.5502      2.00000
     16      -1.0268      2.00000
     17      -0.8329      2.00000
     18      -0.6951      2.00000
     19      -0.2452      2.00000
     20      -0.1483      2.00000
     21       0.1494      2.00000
     22       0.4628      2.00000
     23       0.6131      2.00000
     24       0.9057      2.00000
     25       9.5541      0.00000
     26      10.1233      0.00000
     27      10.5358      0.00000
     28      10.9342      0.00000
     29      11.2405      0.00000
     30      11.5326      0.00000
     31      11.7918      0.00000
     32      12.1781      0.00000
     33      12.5390      0.00000
     34      12.9843      0.00000
     35      13.2955      0.00000
     36      13.6457      0.00000
     37      14.1337      0.00000
     38      15.2233      0.00000
     39      15.6509      0.00000
     40      16.5603      0.00000
     41      16.8688      0.00000
     42      17.1130      0.00000

 k-point    13 :       0.0000    0.0000    0.5000
  band No.  band energies     occupation 
      1     -17.7917      2.00000
      2     -17.7917      2.00000
      3     -16.1507      2.00000
      4     -16.1107      2.00000
      5     -16.1107      2.00000
      6     -16.0857      2.00000
      7      -8.1118      2.00000
      8      -5.1029      2.00000
      9      -5.1029      2.00000
     10      -4.4256      2.00000
     11      -4.4256      2.00000
     12      -3.4944      2.00000
     13      -1.5985      2.00000
     14      -1.5985      2.00000
     15      -1.5081      2.00000
     16      -0.8860      2.00000
     17      -0.8860      2.00000
     18      -0.6670      2.00000
     19      -0.6670      2.00000
     20      -0.3505      2.00000
     21      -0.1489      2.00000
     22       0.8003      2.00000
     23       0.8003      2.00000
     24       0.9954      2.00000
     25       8.8625      0.00000
     26       8.8625      0.00000
     27      10.0956      0.00000
     28      10.6321      0.00000
     29      10.6321      0.00000
     30      11.7129      0.00000
     31      12.5337      0.00000
     32      12.5352      0.00000
     33      12.5352      0.00000
     34      13.8247      0.00000
     35      13.8247      0.00000
     36      14.7357      0.00000
     37      14.7357      0.00000
     38      14.9085      0.00000
     39      15.5341      0.00000
     40      16.5492      0.00000
     41      16.7415      0.00000
     42      16.7415      0.00000

 k-point    14 :       0.2000    0.0000    0.5000
  band No.  band energies     occupation 
      1     -17.7595      2.00000
      2     -17.6711      2.00000
      3     -16.2977      2.00000
      4     -16.1676      2.00000
      5     -16.1246      2.00000
      6     -16.1035      2.00000
      7      -7.8317      2.00000
      8      -5.3962      2.00000
      9      -5.1707      2.00000
     10      -4.2943      2.00000
     11      -4.2223      2.00000
     12      -3.5668      2.00000
     13      -1.8185      2.00000
     14      -1.7912      2.00000
     15      -1.4062      2.00000
     16      -1.0605      2.00000
     17      -0.9367      2.00000
     18      -0.4950      2.00000
     19      -0.4054      2.00000
     20      -0.2075      2.00000
     21      -0.0461      2.00000
     22       0.6731      2.00000
     23       0.6831      2.00000
     24       0.9392      2.00000
     25       9.0868      0.00000
     26       9.2073      0.00000
     27      10.2663      0.00000
     28      10.6649      0.00000
     29      10.8646      0.00000
     30      11.5448      0.00000
     31      12.0033      0.00000
     32      12.5069      0.00000
     33      12.8664      0.00000
     34      13.2531      0.00000
     35      13.5161      0.00000
     36      14.4139      0.00000
     37      14.6311      0.00000
     38      15.0001      0.00000
     39      16.2110      0.00000
     40      16.5176      0.00000
     41      16.7371      0.00000
     42      16.7804      0.00000

 k-point    15 :       0.4000    0.0000    0.5000
  band No.  band energies     occupation 
      1     -17.7040      2.00000
      2     -17.3636      2.00000
      3     -16.7079      2.00000
      4     -16.2091      2.00000
      5     -16.1503      2.00000
      6     -16.1190      2.00000
      7      -7.2139      2.00000
      8      -5.9514      2.00000
      9      -5.2325      2.00000
     10      -4.1642      2.00000
     11      -3.9220      2.00000
     12      -3.7331      2.00000
     13      -2.0451      2.00000
     14      -2.0283      2.00000
     15      -1.2868      2.00000
     16      -1.0725      2.00000
     17      -0.9042      2.00000
     18      -0.3978      2.00000
     19      -0.2141      2.00000
     20      -0.0439      2.00000
     21       0.1360      2.00000
     22       0.3231      2.00000
     23       0.5156      2.00000
     24       0.9090      2.00000
     25       9.5623      0.00000
     26      10.0126      0.00000
     27      10.5177      0.00000
     28      10.8082      0.00000
     29      11.2164      0.00000
     30      11.4926      0.00000
     31      11.6305      0.00000
     32      12.1674      0.00000
     33      12.3281      0.00000
     34      12.7900      0.00000
     35      13.1788      0.00000
     36      13.8483      0.00000
     37      14.6397      0.00000
     38      15.1387      0.00000
     39      16.1417      0.00000
     40      16.4507      0.00000
     41      16.6112      0.00000
     42      17.6400      0.00000

 k-point    16 :       0.2000    0.2000    0.5000
  band No.  band energies     occupation 
      1     -17.7095      2.00000
      2     -17.4561      2.00000
      3     -16.5926      2.00000
      4     -16.1913      2.00000
      5     -16.1413      2.00000
      6     -16.1389      2.00000
      7      -7.3585      2.00000
      8      -5.7803      2.00000
      9      -5.2900      2.00000
     10      -4.1192      2.00000
     11      -4.0336      2.00000
     12      -3.6955      2.00000
     13      -2.0403      2.00000
     14      -1.9122      2.00000
     15      -1.2951      2.00000
     16      -1.2024      2.00000
     17      -0.8298      2.00000
     18      -0.4773      2.00000
     19      -0.2010      2.00000
     20      -0.0188      2.00000
     21       0.0664      2.00000
     22       0.4448      2.00000
     23       0.5942      2.00000
     24       0.8159      2.00000
     25       9.4373      0.00000
     26       9.8109      0.00000
     27      10.4340      0.00000
     28      10.8811      0.00000
     29      11.1668      0.00000
     30      11.5564      0.00000
     31      11.5595      0.00000
     32      12.3381      0.00000
     33      12.4558      0.00000
     34      12.9755      0.00000
     35      13.1670      0.00000
     36      13.9022      0.00000
     37      14.4967      0.00000
     38      15.0081      0.00000
     39      16.0778      0.00000
     40      16.5649      0.00000
     41      16.9456      0.00000
     42      17.4925      0.00000

 k-point    17 :       0.4000    0.2000    0.5000
  band No.  band energies     occupation 
      1     -17.6749      2.00000
      2     -17.1889      2.00000
      3     -16.9052      2.00000
      4     -16.2128      2.00000
      5     -16.1607      2.00000
      6     -16.1515      2.00000
      7      -6.8383      2.00000
      8      -6.2355      2.00000
      9      -5.3525      2.00000
     10      -4.0443      2.00000
     11      -3.9102      2.00000
     12      -3.8010      2.00000
     13      -2.1337      2.00000
     14      -1.8761      2.00000
     15      -1.4757      2.00000
     16      -0.9335      2.00000
     17      -0.8386      2.00000
     18      -0.6343      2.00000
     19       0.0098      2.00000
     20       0.0810      2.00000
     21       0.1903      2.00000
     22       0.2805      2.00000
     23       0.4687      2.00000
     24       0.7180      2.00000
     25       9.7068      0.00000
     26      10.4337      0.00000
     27      10.7322      0.00000
     28      10.8666      0.00000
     29      11.0299      0.00000
     30      11.4492      0.00000
     31      11.6478      0.00000
     32      12.1019      0.00000
     33      12.4527      0.00000
     34      12.7144      0.00000
     35      12.9470      0.00000
     36      13.1943      0.00000
     37      14.5855      0.00000
     38      15.0125      0.00000
     39      15.7241      0.00000
     40      16.8555      0.00000
     41      17.0864      0.00000
     42      17.9154      0.00000


--------------------------------------------------------------------------------------------------------


 soft charge-density along one line, spin component           1
         0         1         2         3         4         5         6         7         8         9
 total charge-density along one line

 pseudopotential strength for first ion, spin component:           1
 18.766  26.185  -0.001   0.000  -0.000  -0.001   0.000  -0.001
 26.185  36.541  -0.001   0.000  -0.000  -0.001   0.000  -0.001
 -0.001  -0.001   4.216   0.000   0.000   7.860   0.000   0.000
  0.000   0.000   0.000   4.216  -0.000   0.000   7.859  -0.001
 -0.000  -0.000   0.000  -0.000   4.216   0.000  -0.001   7.860
 -0.001  -0.001   7.860   0.000   0.000  14.663   0.001   0.000
  0.000   0.000   0.000   7.859  -0.001   0.001  14.662  -0.001
 -0.001  -0.001   0.000  -0.001   7.860   0.000  -0.001  14.663
 total augmentation occupancy for first ion, spin component:           1
 13.327  -7.059  -0.056   0.000  -0.033   0.021  -0.000   0.012
 -7.059   3.871   0.042  -0.000   0.024  -0.014   0.000  -0.008
 -0.056   0.042   6.065   0.046   0.030  -2.005  -0.018  -0.021
  0.000  -0.000   0.046   6.147  -0.080  -0.018  -2.030   0.031
 -0.033   0.024   0.030  -0.080   6.030  -0.021   0.032  -1.981
  0.021  -0.014  -2.005  -0.018  -0.021   0.682   0.007   0.009
 -0.000   0.000  -0.018  -2.030   0.032   0.007   0.691  -0.012
  0.012  -0.008  -0.021   0.031  -1.981   0.009  -0.012   0.672


------------------------ aborting loop because EDIFF is reached ----------------------------------------


    CHARGE:  cpu time      1.4006: real time      3.1537
    FORLOC:  cpu time      0.0408: real time      0.0765
    FORNL :  cpu time      0.4576: real time      1.1396
    STRESS:  cpu time      1.6849: real time      3.5459
    FORCOR:  cpu time      0.6761: real time      1.3880
    FORHAR:  cpu time      0.3180: real time      0.7776
    MIXING:  cpu time      0.6333: real time      1.5566
    OFIELD:  cpu time      0.0000: real time      0.0000

  FORCE on cell =-STRESS in cart. coord.  units (eV):
  Direction    XX          YY          ZZ          XY          YZ          ZX
  --------------------------------------------------------------------------------------
  Alpha Z    69.31647    69.31647    69.31647
  Ewald    -656.76344  -656.76344  -596.09671     0.00000     0.00000    -0.00000
  Hartree   339.84475   339.84476   371.12224     0.00000    -0.00000    -0.00000
  E(xc)    -224.80026  -224.80025  -224.75830    -0.00000     0.00000     0.00000
  Local    -399.69244  -399.69218  -490.11774    -0.00000     0.00001     0.00000
  n-local   -52.09153   -52.33931   -51.35910    -0.10334     0.06771    -0.00882
  augment    27.12348    27.12333    26.97563    -0.00000     0.00004    -0.00000
  Kinetic   898.24138   899.28537   896.43009     0.37754    -0.03722    -0.12769
  Fock        0.00000     0.00000     0.00000     0.00000     0.00000     0.00000
  -------------------------------------------------------------------------------------
  Total       1.57658     1.57658     1.51257     0.00000    -0.00000     0.00000
  in kB      22.21481    22.21481    21.31295     0.00000    -0.00000     0.00000
  external pressure =       21.91 kB  Pullay stress =        0.00 kB


 VOLUME and BASIS-vectors are now :
 -----------------------------------------------------------------------------
  energy-cutoff  :      520.00
  volume of cell :      113.71
      direct lattice vectors                 reciprocal lattice vectors
     2.458278904 -4.257863960  0.000000000     0.203394334 -0.117429773  0.000000000
     2.458278904  4.257863960  0.000000000     0.203394334  0.117429773 -0.000000000
     0.000000000  0.000000000  5.431625250    -0.000000000  0.000000000  0.184106958

  length of vectors
     4.916557807  4.916557807  5.431625250     0.234859547  0.234859547  0.184106958


 FORCES acting on ions
    electron-ion (+dipol)            ewald-force                    non-local-force                 convergence-correction
 -----------------------------------------------------------------------------------------------
   0.101E+01 0.176E+01 0.351E-05   -.900E+00 -.156E+01 -.223E-11   -.111E+00 -.193E+00 0.242E-17   -.842E-04 -.146E-03 -.575E-06
   -.203E+01 -.795E-07 0.194E-07   0.180E+01 0.606E-13 -.164E-11   0.223E+00 0.215E-18 0.211E-18   0.168E-03 0.284E-13 -.412E-13
   0.101E+01 -.176E+01 -.362E-05   -.900E+00 0.156E+01 0.246E-11   -.111E+00 0.193E+00 0.133E-18   -.842E-04 0.146E-03 0.575E-06
   0.295E+02 -.639E+02 -.330E+02   -.400E+02 0.798E+02 0.442E+02   0.105E+02 -.158E+02 -.112E+02   -.123E-01 -.307E-02 0.113E-01
   -.701E+02 0.641E+01 -.330E+02   0.891E+02 -.523E+01 0.442E+02   -.190E+02 -.118E+01 -.112E+02   0.348E-02 0.122E-01 0.113E-01
   0.406E+02 0.575E+02 -.330E+02   -.491E+02 -.745E+02 0.442E+02   0.847E+01 0.170E+02 -.112E+02   0.880E-02 -.910E-02 0.113E-01
   0.406E+02 -.575E+02 0.330E+02   -.491E+02 0.745E+02 -.442E+02   0.847E+01 -.170E+02 0.112E+02   0.880E-02 0.910E-02 -.113E-01
   -.701E+02 -.641E+01 0.330E+02   0.891E+02 0.523E+01 -.442E+02   -.190E+02 0.118E+01 0.112E+02   0.348E-02 -.122E-01 -.113E-01
   0.295E+02 0.639E+02 0.330E+02   -.400E+02 -.798E+02 -.442E+02   0.105E+02 0.158E+02 0.112E+02   -.123E-01 0.307E-02 -.113E-01
 -----------------------------------------------------------------------------------------------
   0.315E-04 -.696E-08 0.211E-07   0.142E-13 -.568E-13 0.000E+00   0.533E-14 0.711E-14 0.178E-14   -.142E-06 0.147E-12 0.786E-13


 POSITION                                       TOTAL-FORCE (eV/Angst)
 -----------------------------------------------------------------------------------
      1.14624      1.98535      1.81054         0.003042      0.005268      0.000000
      2.62407      0.00000     -0.00000        -0.006083     -0.000000      0.000000
      1.14624     -1.98535      3.62108         0.003042     -0.005268      0.000000
      2.12371      2.51090      3.00135         0.000630     -0.008512      0.004561
      3.57093      1.16323      4.81189        -0.007687      0.003710      0.004561
      1.68020      0.58374      1.19081         0.007057      0.004802      0.004561
      1.68020     -0.58374      4.24082         0.007057     -0.004802     -0.004561
      3.57093     -1.16323      0.61974        -0.007687     -0.003710     -0.004561
      2.12371     -2.51090      2.43028         0.000630      0.008512     -0.004561
 -----------------------------------------------------------------------------------
    total drift:                                0.000031     -0.000000      0.000000


--------------------------------------------------------------------------------------------------------



  FREE ENERGIE OF THE ION-ELECTRON SYSTEM (eV)
  ---------------------------------------------------
  free  energy   TOTEN  =       -71.08229391 eV

  energy  without entropy=      -71.08229391  energy(sigma->0) =      -71.08229391

 d Force = 0.2358536E-02[ 0.201E-03, 0.452E-02]  d Energy = 0.2408428E-02-0.499E-04
 d Force = 0.3337204E+01[ 0.338E+01, 0.329E+01]  d Ewald  = 0.3337647E+01-0.443E-03


--------------------------------------------------------------------------------------------------------


    POTLOK:  cpu time      1.2164: real time      2.5632


--------------------------------------------------------------------------------------------------------


 Quasi-Newton relaxation of ions (Broydens 2nd method)
  g(Force)  = 0.325E-04   g(Stress)= 0.000E+00

 retain information from N=  2 steps
 eigenvalues of (default step * inverse Hessian matrix)
  average eigenvalue of G=   2.5590
 eigenvalue spectrum of G is  1.6924  3.4257


--------------------------------------------------------------------------------------------------------


  
 reached required accuracy - stopping structural energy minimisation
 writing wavefunctions
     LOOP+:  cpu time   1140.3038: real time   2352.1690
    4ORBIT:  cpu time      0.0000: real time      0.0000

 total amount of memory used by VASP MPI-rank0    46097. kBytes
=======================================================================

   base      :      30000. kBytes
   nonl-proj :       7145. kBytes
   fftplans  :       1570. kBytes
   grid      :       4774. kBytes
   one-center:         27. kBytes
   wavefun   :       2581. kBytes

  
  
 General timing and accounting informations for this job:
 ========================================================
  
                  Total CPU time used (sec):     6321.142
                            User time (sec):     6193.336
                          System time (sec):      127.805
                         Elapsed time (sec):    13037.621
  
                   Maximum memory used (kb):   113524736.
                   Average memory used (kb):          N/A
  
                          Minor page faults:        87604
                          Major page faults:          155
                 Voluntary context switches:           12
