 vasp.6.4.3 19Mar24 (build Jul  1 2025 23:09:51) complex                         
 executed on             LinuxGNU date 2025.12.31  16:21:57
 running   14 mpi-ranks, with   14 threads/rank, on    1 nodes
 distrk:  each k-point on   14 cores,    1 groups
 distr:  one band on NCORE=   1 cores,   14 groups


--------------------------------------------------------------------------------------------------------


 INCAR:
   GGA = PE
   PREC = Accurate
   ENCUT = 520
   KSPACING = 0.3
   ISMEAR = 0
   SIGMA = 0.03
   EDIFF = 1e-6
   NELM = 120
   NELMIN = 8
   ISIF = 2
   IBRION = 1
   EDIFFG = -1e-3
   NSW = 200

 POTCAR:    PAW_PBE Zn 06Sep2000                  
 POTCAR:    PAW_PBE S 06Sep2000                   
 POTCAR:    PAW_PBE Zn 06Sep2000                  
   SHA256 =  501fddbd8274dd8e9725d4f3de27861d7f1e553a7e18441bc79fed8f346e7f23 Zn/POTCAR             
   COPYR  = (c) Copyright 06Sep2000 Georg Kresse                                                    
   COPYR  = This file is part of the software VASP. Any use, copying, and all other rights are regul
   COPYR  = If you do not have a valid VASP license, you may not use, copy or distribute this file. 
   VRHFIN =Zn: d10 p2                                                                               
   LEXCH  = PE                                                                                      
   EATOM  =  1748.8345 eV,  128.5357 Ry                                                             
                                                                                                    
   TITEL  = PAW_PBE Zn 06Sep2000                                                                    
   LULTRA =        F    use ultrasoft PP ?                                                          
   IUNSCR =        1    unscreen: 0-lin 1-nonlin 2-no                                               
   RPACOR =    2.000    partial core radius                                                         
   POMASS =   65.390; ZVAL   =   12.000    mass and valenz                                          
   RCORE  =    2.300    outmost cutoff radius                                                       
   RWIGS  =    2.400; RWIGS  =    1.270    wigner-seitz radius (au A)                               
   ENMAX  =  276.723; ENMIN  =  207.542 eV                                                          
   RCLOC  =    1.828    cutoff for local pot                                                        
   LCOR   =        T    correct aug charges                                                         
   LPAW   =        T    paw PP                                                                      
   EAUG   =  575.892                                                                                
   DEXC   =    0.000                                                                                
   RMAX   =    2.347    core radius for proj-oper                                                   
   RAUG   =    1.300    factor for augmentation sphere                                              
   RDEP   =    2.324    radius for radial grids                                                     
   RDEPT  =    1.788    core radius for aug-charge                                                  
                                                                                                    
   Atomic configuration                                                                             
    9 entries                                                                                       
     n  l   j            E        occ.                                                              
     1  0  0.50     -9524.6913   2.0000                                                             
     2  0  0.50     -1158.1882   2.0000                                                             
     2  1  1.50     -1003.8506   6.0000                                                             
     3  0  0.50      -129.2194   2.0000                                                             
     3  1  1.50       -83.3890   6.0000                                                             
     3  2  2.50       -10.1410  10.0000                                                             
     4  0  0.50        -5.9785   2.0000                                                             
     4  1  0.50        -4.0817   0.0000                                                             
     4  3  2.50        -1.3606   0.0000                                                             
   Description                                                                                      
     l       E           TYP  RCUT    TYP  RCUT                                                     
     2    -10.1410010     23  2.300                                                                 
     2    -11.5015836     23  2.300                                                                 
     0     -5.9785163     23  2.300                                                                 
     0      1.1858015     23  2.300                                                                 
     1     -2.7211652     23  2.300                                                                 
     1     13.2444212     23  2.300                                                                 
  local pseudopotential read in
  partial core-charges read in
  partial kinetic energy density read in
  atomic valenz-charges read in
  non local Contribution for L=           2  read in
    real space projection operators read in
  non local Contribution for L=           2  read in
    real space projection operators read in
  non local Contribution for L=           0  read in
    real space projection operators read in
  non local Contribution for L=           0  read in
    real space projection operators read in
  non local Contribution for L=           1  read in
    real space projection operators read in
  non local Contribution for L=           1  read in
    real space projection operators read in
    PAW grid and wavefunctions read in

   number of l-projection  operators is LMAX  =           6
   number of lm-projection operators is LMMAX =          18

 POTCAR:    PAW_PBE S 06Sep2000                   
   SHA256 =  0fc7481fb0695f01bdc6462160264c5c84044ae9ec85a907d398b887a2bc3132 S/POTCAR              
   COPYR  = (c) Copyright 06Sep2000 Georg Kresse                                                    
   COPYR  = This file is part of the software VASP. Any use, copying, and all other rights are regul
   COPYR  = If you do not have a valid VASP license, you may not use, copy or distribute this file. 
   VRHFIN =S : s2p4                                                                                 
   LEXCH  = PE                                                                                      
   EATOM  =   276.8230 eV,   20.3459 Ry                                                             
                                                                                                    
   TITEL  = PAW_PBE S 06Sep2000                                                                     
   LULTRA =        F    use ultrasoft PP ?                                                          
   IUNSCR =        1    unscreen: 0-lin 1-nonlin 2-no                                               
   RPACOR =    1.500    partial core radius                                                         
   POMASS =   32.066; ZVAL   =    6.000    mass and valenz                                          
   RCORE  =    1.900    outmost cutoff radius                                                       
   RWIGS  =    2.200; RWIGS  =    1.164    wigner-seitz radius (au A)                               
   ENMAX  =  258.689; ENMIN  =  194.016 eV                                                          
   ICORE  =        2    local potential                                                             
   LCOR   =        T    correct aug charges                                                         
   LPAW   =        T    paw PP                                                                      
   EAUG   =  335.092                                                                                
   DEXC   =    0.000                                                                                
   RMAX   =    1.942    core radius for proj-oper                                                   
   RAUG   =    1.300    factor for augmentation sphere                                              
   RDEP   =    1.954    radius for radial grids                                                     
   RDEPT  =    1.744    core radius for aug-charge                                                  
                                                                                                    
   Atomic configuration                                                                             
    6 entries                                                                                       
     n  l   j            E        occ.                                                              
     1  0  0.50     -2405.8406   2.0000                                                             
     2  0  0.50      -211.7007   2.0000                                                             
     2  1  1.50      -156.4958   6.0000                                                             
     3  0  0.50       -17.2562   2.0000                                                             
     3  1  0.50        -7.0085   4.0000                                                             
     3  2  1.50        -6.8029   0.0000                                                             
   Description                                                                                      
     l       E           TYP  RCUT    TYP  RCUT                                                     
     0    -17.2561641     23  1.900                                                                 
     0    -15.8743224     23  1.900                                                                 
     1     -7.0085400     23  1.900                                                                 
     1     -2.7779785     23  1.900                                                                 
     2     -6.8029130     23  1.900                                                                 
  local pseudopotential read in
  partial core-charges read in
  partial kinetic energy density read in
  atomic valenz-charges read in
  non local Contribution for L=           0  read in
    real space projection operators read in
  non local Contribution for L=           0  read in
    real space projection operators read in
  non local Contribution for L=           1  read in
    real space projection operators read in
  non local Contribution for L=           1  read in
    real space projection operators read in
    PAW grid and wavefunctions read in

   number of l-projection  operators is LMAX  =           4
   number of lm-projection operators is LMMAX =           8

  PAW_PBE Zn 06Sep2000                  :
 energy of atom  1       EATOM=-1748.8345
 kinetic energy error for atom=    0.0029 (will be added to EATOM!!)
  PAW_PBE S 06Sep2000                   :
 energy of atom  2       EATOM= -276.8230
 kinetic energy error for atom=    0.0016 (will be added to EATOM!!)


 POSCAR: Zn S
  positions in cartesian coordinates
  velocities in cartesian coordinates


 exchange-correlation table for PE
   RHO(1)=    0.500       N(1)  =     2000
   RHO(2)=  100.500       N(2)  =     4000



--------------------------------------------------------------------------------------------------------


 ion  position               nearest neighbor table
   1  0.333  0.667  0.000-   4 2.48   4 2.48   4 2.48   3 2.48
   2  0.667  0.333  0.500-   3 2.48   3 2.48   3 2.48   4 2.48
   3  0.333  0.667  0.375-   2 2.48   2 2.48   2 2.48   1 2.48
   4  0.667  0.333  0.875-   1 2.48   1 2.48   1 2.48   2 2.48

  LATTYP: Found a hexagonal cell.
 ALAT       =     4.0410768909
 C/A-ratio  =     1.6395977843
  
  Lattice vectors:
  
 A1 = (   2.0205384454,  -3.4996752461,  -0.0000000000)
 A2 = (   2.0205384454,   3.4996752461,   0.0000000000)
 A3 = (   0.0000000000,   0.0000000000,   6.6257407166)


Analysis of symmetry for initial positions (statically):
=====================================================================
 Subroutine PRICEL returns:
 Original cell was already a primitive cell.
 

 Routine SETGRP: Setting up the symmetry group for a 
 hexagonal supercell.


 Subroutine GETGRP returns: Found 12 space group operations
 (whereof  6 operations were pure point group operations)
 out of a pool of 24 trial point group operations.


The static configuration has the point symmetry C_3v.
 The point group associated with its full space group is C_6v.


Analysis of symmetry for dynamics (positions and initial velocities):
=====================================================================
 Subroutine PRICEL returns:
 Original cell was already a primitive cell.
 

 Routine SETGRP: Setting up the symmetry group for a 
 hexagonal supercell.


 Subroutine GETGRP returns: Found 12 space group operations
 (whereof  6 operations were pure point group operations)
 out of a pool of 24 trial point group operations.


The dynamic configuration has the point symmetry C_3v.
 The point group associated with its full space group is C_6v.


 Subroutine INISYM returns: Found 12 space group operations
 (whereof  6 operations are pure point group operations),
 and found     1 'primitive' translations


----------------------------------------------------------------------------------------

                                     Primitive cell                                     

  volume of cell :      93.7043

  direct lattice vectors                    reciprocal lattice vectors
     2.020538445 -3.499675246 -0.000000000     0.247458791 -0.142870399  0.000000000
     2.020538445  3.499675246  0.000000000     0.247458791  0.142870399 -0.000000000
     0.000000000  0.000000000  6.625740717     0.000000000 -0.000000000  0.150926522

  length of vectors
     4.041076891  4.041076891  6.625740717     0.285740799  0.285740799  0.150926522

  position of ions in fractional coordinates (direct lattice)
     0.333333333  0.666666667  0.000260133
     0.666666667  0.333333333  0.500260133
     0.333333333  0.666666667  0.374739867
     0.666666667  0.333333333  0.874739867

  ion indices of the primitive-cell ions
   primitive index   ion index
                 1           1
                 2           2
                 3           3
                 4           4

----------------------------------------------------------------------------------------



 KPOINTS: Automatic kpoint scheme                 

Automatic generation of k-mesh.
 Grid dimensions read from file:
 generate k-points for:    6    6    4

 Generating k-lattice:

  Cartesian coordinates                     Fractional coordinates (reciprocal lattice)
     0.041243132 -0.023811733  0.000000000     0.166666667 -0.000000000  0.000000000
     0.041243132  0.023811733 -0.000000000    -0.000000000  0.166666667  0.000000000
     0.000000000 -0.000000000  0.037731630     0.000000000  0.000000000  0.250000000

  Length of vectors
     0.047623466  0.047623466  0.037731630

  Shift w.r.t. Gamma in fractional coordinates (k-lattice)
     0.000000000  0.000000000  0.000000000

 
 Subroutine IBZKPT returns following result:
 ===========================================
 
 Found     21 irreducible k-points:
 
 Following reciprocal coordinates:
            Coordinates               Weight
  0.000000  0.000000  0.000000      1.000000
  0.166667  0.000000  0.000000      6.000000
  0.333333  0.000000  0.000000      6.000000
  0.500000  0.000000  0.000000      3.000000
  0.166667  0.166667  0.000000      6.000000
  0.333333  0.166667  0.000000     12.000000
  0.333333  0.333333  0.000000      2.000000
  0.000000  0.000000  0.250000      2.000000
  0.166667  0.000000  0.250000     12.000000
  0.333333  0.000000  0.250000     12.000000
  0.500000  0.000000  0.250000      6.000000
  0.166667  0.166667  0.250000     12.000000
  0.333333  0.166667  0.250000     24.000000
  0.333333  0.333333  0.250000      4.000000
  0.000000  0.000000  0.500000      1.000000
  0.166667  0.000000  0.500000      6.000000
  0.333333  0.000000  0.500000      6.000000
  0.500000  0.000000  0.500000      3.000000
  0.166667  0.166667  0.500000      6.000000
  0.333333  0.166667  0.500000     12.000000
  0.333333  0.333333  0.500000      2.000000
 
 Following cartesian coordinates:
            Coordinates               Weight
  0.000000 -0.000000  0.000000      1.000000
  0.041243 -0.023812  0.000000      6.000000
  0.082486 -0.047623  0.000000      6.000000
  0.123729 -0.071435  0.000000      3.000000
  0.082486 -0.000000  0.000000      6.000000
  0.123729 -0.023812  0.000000     12.000000
  0.164973  0.000000  0.000000      2.000000
  0.000000 -0.000000  0.037732      2.000000
  0.041243 -0.023812  0.037732     12.000000
  0.082486 -0.047623  0.037732     12.000000
  0.123729 -0.071435  0.037732      6.000000
  0.082486 -0.000000  0.037732     12.000000
  0.123729 -0.023812  0.037732     24.000000
  0.164973  0.000000  0.037732      4.000000
  0.000000 -0.000000  0.075463      1.000000
  0.041243 -0.023812  0.075463      6.000000
  0.082486 -0.047623  0.075463      6.000000
  0.123729 -0.071435  0.075463      3.000000
  0.082486 -0.000000  0.075463      6.000000
  0.123729 -0.023812  0.075463     12.000000
  0.164973  0.000000  0.075463      2.000000
 


--------------------------------------------------------------------------------------------------------




 Dimension of arrays:
   k-points           NKPTS =     21   k-points in BZ     NKDIM =     21   number of bands    NBANDS=     28
   number of dos      NEDOS =    301   number of ions     NIONS =      4
   non local maximal  LDIM  =      6   non local SUM 2l+1 LMDIM =     18
   total plane-waves  NPLWV =  45000
   max r-space proj   IRMAX =      1   max aug-charges    IRDMAX=  15327
   dimension x,y,z NGX =    30 NGY =   30 NGZ =   50
   dimension x,y,z NGXF=    60 NGYF=   60 NGZF=  100
   support grid    NGXF=    60 NGYF=   60 NGZF=  100
   ions per type =               2   2
   NGX,Y,Z   is equivalent  to a cutoff of  12.34, 12.34, 12.55 a.u.
   NGXF,Y,Z  is equivalent  to a cutoff of  24.68, 24.68, 25.09 a.u.

 SYSTEM =  unknown system                          
 POSCAR =  Zn S                                    

 Startparameter for this run:
   NWRITE =      2    write-flag & timer
   PREC   = accura    normal or accurate (medium, high low for compatibility)
   ISTART =      0    job   : 0-new  1-cont  2-samecut
   ICHARG =      2    charge: 1-file 2-atom 10-const
   ISPIN  =      1    spin polarized calculation?
   LNONCOLLINEAR =      F non collinear calculations
   LSORBIT =      F    spin-orbit coupling
   INIWAV =      1    electr: 0-lowe 1-rand  2-diag
   LASPH  =      F    aspherical Exc in radial PAW
 Electronic Relaxation 1
   ENCUT  =  520.0 eV  38.22 Ry    6.18 a.u.   7.51  7.51 12.32*2*pi/ulx,y,z
   ENINI  =  520.0     initial cutoff
   ENAUG  =  575.9 eV  augmentation charge cutoff
   NELM   =    120;   NELMIN=  8; NELMDL= -5     # of ELM steps 
   EDIFF  = 0.1E-05   stopping-criterion for ELM
   LREAL  =      F    real-space projection
   NLSPLINE    = F    spline interpolate recip. space projectors
   LCOMPAT=      F    compatible to vasp.4.4
   GGA_COMPAT  = T    GGA compatible to vasp.4.4-vasp.4.6
   LMAXPAW     = -100 max onsite density
   LMAXMIX     =    2 max onsite mixed and CHGCAR
   VOSKOWN=      0    Vosko Wilk Nusair interpolation
   ROPT   =    0.00000   0.00000
 Ionic relaxation
   EDIFFG = -.1E-02   stopping-criterion for IOM
   NSW    =    200    number of steps for IOM
   NBLOCK =      1;   KBLOCK =    200    inner block; outer block 
   IBRION =      1    ionic relax: 0-MD 1-quasi-New 2-CG
   NFREE  =      0    steps in history (QN), initial steepest desc. (CG)
   ISIF   =      2    stress and relaxation
   IWAVPR =     11    prediction:  0-non 1-charg 2-wave 3-comb
   ISYM   =      2    0-nonsym 1-usesym 2-fastsym
   LCORR  =      T    Harris-Foulkes like correction to forces

   POTIM  = 0.5000    time-step for ionic-motion
   TEIN   =    0.0    initial temperature
   TEBEG  =    0.0;   TEEND  =   0.0 temperature during run
   SMASS  =  -3.00    Nose mass-parameter (am)
   estimated Nose-frequenzy (Omega)   =  0.10E-29 period in steps = 0.13E+47 mass=  -0.373E-27a.u.
   SCALEE = 1.0000    scale energy and forces
   NPACO  =    256;   APACO  = 10.0  distance and # of slots for P.C.
   PSTRESS=    0.0 pullay stress

  Mass of Ions in am
   POMASS =  65.39 32.07
  Ionic Valenz
   ZVAL   =  12.00  6.00
  Atomic Wigner-Seitz radii
   RWIGS  =  -1.00 -1.00
  virtual crystal weights 
   VCA    =   1.00  1.00
   NELECT =      36.0000    total number of electrons
   NUPDOWN=      -1.0000    fix difference up-down

 DOS related values:
   EMIN   =  10.00;   EMAX   =-10.00  energy-range for DOS
   EFERMI =   0.00;   METHOD = LEGACY      
   ISMEAR =     0;   SIGMA  =   0.03  broadening in eV -4-tet -1-fermi 0-gaus

 Electronic relaxation 2 (details)
   IALGO  =     38    algorithm
   LDIAG  =      T    sub-space diagonalisation (order eigenvalues)
   LSUBROT=      F    optimize rotation matrix (better conditioning)
   TURBO    =      0    0=normal 1=particle mesh
   IRESTART =      0    0=no restart 2=restart with 2 vectors
   NREBOOT  =      0    no. of reboots
   NMIN     =      0    reboot dimension
   EREF     =   0.00    reference energy to select bands
   IMIX   =      4    mixing-type and parameters
     AMIX     =   0.40;   BMIX     =  1.00
     AMIX_MAG =   1.60;   BMIX_MAG =  1.00
     AMIN     =   0.10
     WC   =   100.;   INIMIX=   1;  MIXPRE=   1;  MAXMIX= -45

 Intra band minimization:
   WEIMIN = 0.0010     energy-eigenvalue tresh-hold
   EBREAK =  0.89E-08  absolut break condition
   DEPER  =   0.30     relativ break condition  

   TIME   =   0.40     timestep for ELM

  volume/ion in A,a.u.               =      23.43       158.09
  Fermi-wavevector in a.u.,A,eV,Ry     =   1.190116  2.248993 19.270961  1.416376
  Thomas-Fermi vector in A             =   2.326208

 Write flags
   LWAVE        =      T    write WAVECAR
   LDOWNSAMPLE  =      F    k-point downsampling of WAVECAR
   LCHARG       =      T    write CHGCAR
   LVTOT        =      F    write LOCPOT, total local potential
   LVHAR        =      F    write LOCPOT, Hartree potential only
   WRT_POTENTIAL= false  ! write potential to hdf5 file
   LELF         =      F    write electronic localiz. function (ELF)
   LORBIT       =      0    0 simple, 1 ext, 2 COOP (PROOUT), +10 PAW based schemes


 Dipole corrections
   LMONO      =      F    monopole corrections only (constant potential shift)
   LDIPOL     =      F    correct potential (dipole corrections)
   IDIPOL     =      0    1-x, 2-y, 3-z, 4-all directions 
   EPSILON    =  1.0000000 bulk dielectric constant
   LVACPOTAV  =      F  vacuum potentials using an averaging scheme for the charge density
   VACPOTFLAT =  0.1000000 required flatness to determine vacuum potential
 Exchange correlation treatment:
   GGA     = PE    functional components
   XC_C    = 1    coefficients multiplying the functional components
   LIBXC   =     F    Libxc                    
   VOSKOWN =     0    Vosko Wilk Nusair interpolation
   LHFCALC =     F    Hartree Fock is set to
   LHFONE  =     F    Hartree Fock one center treatment
   AEXX    =    0.0000 exact exchange contribution

 Parameters of functionals:
   PE:
     No parameter

 Van der Waals corrections
   IVDW    =     0    specifies the selected vdW correction

 Linear response parameters
   LEPSILON=     F    determine dielectric tensor
   LRPA    =     F    only Hartree local field effects (RPA)
   LNABLA  =     F    use nabla operator in PAW spheres
   LVEL    =     F    velocity operator in full k-point grid
   CSHIFT  =0.1000    complex shift for real part using Kramers Kronig
   OMEGAMAX=  -1.0    maximum frequency
   DEG_THRESHOLD= 0.2000000E-02 threshold for treating states as degnerate
   RTIME   =   -0.100 relaxation time in fs
  (WPLASMAI=    0.000 imaginary part of plasma frequency in eV, 0.658/RTIME)
   DFIELD  = 0.0000000 0.0000000 0.0000000 field for delta impulse in time

  Optional k-point grid parameters
   LKPOINTS_OPT  =     F    use optional k-point grid
   KPOINTS_OPT_MODE=     1    mode for optional k-point grid

 Orbital magnetization related:
   ORBITALMAG=     F  switch on orbital magnetization
   LCHIMAG   =     F  perturbation theory with respect to B field
   DQ        =  0.001000  dq finite difference perturbation B field
   LLRAUG    =     F  two centre corrections for induced B field
   LBONE     =     F  B-component reconstruction in AE one-centre
   LVGVCALC  =     T  calculate vGv susceptibility
   LVGVAPPL  =     F  apply vGv susceptibility instead of pGv for G=0

 Random number generation:
   RANDOM_GENERATOR = DEFAULT
   PCG_SEED         = not used


--------------------------------------------------------------------------------------------------------


 quasi-Newton-method for relaxation of ions
 charge density and potential will be updated during run
 non-spin polarized calculation
 Variant of blocked Davidson
 Davidson routine will perform the subspace rotation
 perform sub-space diagonalisation
    after iterative eigenvector-optimisation
 modified Broyden-mixing scheme, WC =      100.0
 initial mixing is a Kerker type mixing with AMIX =  0.4000 and BMIX =      1.0000
 Hartree-type preconditioning will be used
 using additional bands           10
 reciprocal scheme for non local part
 use partial core corrections
 calculate Harris-corrections to forces   (improved forces if not selfconsistent)
 use gradient corrections 
 use of overlap-Matrix (Vanderbilt PP)
 Gauss-broadening in eV      SIGMA  =   0.03


--------------------------------------------------------------------------------------------------------


  energy-cutoff  :      520.00
  volume of cell :       93.70
      direct lattice vectors                 reciprocal lattice vectors
     2.020538445 -3.499675246 -0.000000000     0.247458791 -0.142870399  0.000000000
     2.020538445  3.499675246  0.000000000     0.247458791  0.142870399 -0.000000000
     0.000000000  0.000000000  6.625740717     0.000000000 -0.000000000  0.150926522

  length of vectors
     4.041076891  4.041076891  6.625740717     0.285740799  0.285740799  0.150926522



 k-points in units of 2pi/SCALE and weight: Automatic kpoint scheme                 
   0.00000000  0.00000000  0.00000000       0.007
   0.04124313 -0.02381173  0.00000000       0.042
   0.08248626 -0.04762347  0.00000000       0.042
   0.12372940 -0.07143520  0.00000000       0.021
   0.08248626  0.00000000  0.00000000       0.042
   0.12372940 -0.02381173  0.00000000       0.083
   0.16497253 -0.00000000  0.00000000       0.014
   0.00000000  0.00000000  0.03773163       0.014
   0.04124313 -0.02381173  0.03773163       0.083
   0.08248626 -0.04762347  0.03773163       0.083
   0.12372940 -0.07143520  0.03773163       0.042
   0.08248626  0.00000000  0.03773163       0.083
   0.12372940 -0.02381173  0.03773163       0.167
   0.16497253 -0.00000000  0.03773163       0.028
   0.00000000  0.00000000  0.07546326       0.007
   0.04124313 -0.02381173  0.07546326       0.042
   0.08248626 -0.04762347  0.07546326       0.042
   0.12372940 -0.07143520  0.07546326       0.021
   0.08248626  0.00000000  0.07546326       0.042
   0.12372940 -0.02381173  0.07546326       0.083
   0.16497253 -0.00000000  0.07546326       0.014

 k-points in reciprocal lattice and weights: Automatic kpoint scheme                 
   0.00000000  0.00000000  0.00000000       0.007
   0.16666667  0.00000000  0.00000000       0.042
   0.33333333  0.00000000  0.00000000       0.042
   0.50000000  0.00000000  0.00000000       0.021
   0.16666667  0.16666667  0.00000000       0.042
   0.33333333  0.16666667  0.00000000       0.083
   0.33333333  0.33333333  0.00000000       0.014
   0.00000000  0.00000000  0.25000000       0.014
   0.16666667  0.00000000  0.25000000       0.083
   0.33333333  0.00000000  0.25000000       0.083
   0.50000000  0.00000000  0.25000000       0.042
   0.16666667  0.16666667  0.25000000       0.083
   0.33333333  0.16666667  0.25000000       0.167
   0.33333333  0.33333333  0.25000000       0.028
   0.00000000  0.00000000  0.50000000       0.007
   0.16666667  0.00000000  0.50000000       0.042
   0.33333333  0.00000000  0.50000000       0.042
   0.50000000  0.00000000  0.50000000       0.021
   0.16666667  0.16666667  0.50000000       0.042
   0.33333333  0.16666667  0.50000000       0.083
   0.33333333  0.33333333  0.50000000       0.014

 position of ions in fractional coordinates (direct lattice) 
   0.33333333  0.66666667  0.00026013
   0.66666667  0.33333333  0.50026013
   0.33333333  0.66666667  0.37473987
   0.66666667  0.33333333  0.87473987

 position of ions in cartesian coordinates  (Angst):
   2.02053845  1.16655842  0.00172358
   2.02053845 -1.16655842  3.31459394
   2.02053845  1.16655842  2.48292919
   2.02053845 -1.16655842  5.79579955



--------------------------------------------------------------------------------------------------------


 k-point     1 :   0.0000 0.0000 0.0000  plane waves:    2539
 k-point     2 :   0.1667 0.0000 0.0000  plane waves:    2557
 k-point     3 :   0.3333 0.0000 0.0000  plane waves:    2529
 k-point     4 :   0.5000 0.0000 0.0000  plane waves:    2522
 k-point     5 :   0.1667 0.1667 0.0000  plane waves:    2527
 k-point     6 :   0.3333 0.1667 0.0000  plane waves:    2512
 k-point     7 :   0.3333 0.3333 0.0000  plane waves:    2496
 k-point     8 :   0.0000 0.0000 0.2500  plane waves:    2533
 k-point     9 :   0.1667 0.0000 0.2500  plane waves:    2537
 k-point    10 :   0.3333 0.0000 0.2500  plane waves:    2523
 k-point    11 :   0.5000 0.0000 0.2500  plane waves:    2514
 k-point    12 :   0.1667 0.1667 0.2500  plane waves:    2525
 k-point    13 :   0.3333 0.1667 0.2500  plane waves:    2512
 k-point    14 :   0.3333 0.3333 0.2500  plane waves:    2502
 k-point    15 :   0.0000 0.0000 0.5000  plane waves:    2484
 k-point    16 :   0.1667 0.0000 0.5000  plane waves:    2530
 k-point    17 :   0.3333 0.0000 0.5000  plane waves:    2536
 k-point    18 :   0.5000 0.0000 0.5000  plane waves:    2504
 k-point    19 :   0.1667 0.1667 0.5000  plane waves:    2532
 k-point    20 :   0.3333 0.1667 0.5000  plane waves:    2520
 k-point    21 :   0.3333 0.3333 0.5000  plane waves:    2526

 maximum and minimum number of plane-waves per node :      2557     2484

 maximum number of plane-waves:      2557
 maximum index in each direction: 
   IXMAX=    7   IYMAX=    7   IZMAX=   12
   IXMIN=   -8   IYMIN=   -7   IZMIN=  -12


 serial   3D FFT for wavefunctions
 parallel 3D FFT for charge:
    minimum data exchange during FFTs selected (reduces bandwidth)


 total amount of memory used by VASP MPI-rank0    52177. kBytes
=======================================================================

   base      :      30000. kBytes
   nonl-proj :      15658. kBytes
   fftplans  :       1180. kBytes
   grid      :       3518. kBytes
   one-center:         62. kBytes
   wavefun   :       1759. kBytes

     INWAV:  cpu time      0.0000: real time      0.0000
 Broyden mixing: mesh for mixing (old mesh)
   NGX = 15   NGY = 15   NGZ = 25
  (NGX  = 60   NGY  = 60   NGZ  =100)
  gives a total of   5625 points

 initial charge density was supplied:
 charge density of overlapping atoms calculated
 number of electron      36.0000000 magnetization 
 keeping initial charge density in first step


--------------------------------------------------------------------------------------------------------


 Maximum index for augmentation-charges         1088 (set IRDMAX)


--------------------------------------------------------------------------------------------------------


 First call to EWALD:  gamma=   0.390
 Maximum number of real-space cells 3x 3x 2
 Maximum number of reciprocal cells 2x 2x 4

    FEWALD:  cpu time      0.1867: real time      0.2041


--------------------------------------- Ionic step        1  -------------------------------------------




--------------------------------------- Iteration      1(   1)  ---------------------------------------


    POTLOK:  cpu time      0.2154: real time      0.2487
    SETDIJ:  cpu time      0.0113: real time      0.0107
     EDDAV:  cpu time     10.0332: real time     11.5857
       DOS:  cpu time      0.0003: real time      0.0003
    --------------------------------------------
      LOOP:  cpu time     10.2602: real time     11.8454

 eigenvalue-minimisations  :  1176
 total energy-change (2. order) : 0.1840810E+03  (-0.1763514E+04)
 number of electron      36.0000000 magnetization 
 augmentation part       36.0000000 magnetization 

 Free energy of the ion-electron system (eV)
  ---------------------------------------------------
  alpha Z        PSCENC =       120.67745877
  Ewald energy   TEWEN  =     -2364.42210372
  -Hartree energ DENC   =     -1465.13812013
  -exchange      EXHF   =         0.00000000
  -V(xc)+E(xc)   XCENC  =       137.34766295
  PAW double counting   =      3345.42656771    -3694.17617221
  entropy T*S    EENTRO =        -0.00092353
  eigenvalues    EBANDS =        53.06057182
  atomic energy  EATOM  =      4051.30602026
  Solvation  Ediel_sol  =         0.00000000
  ---------------------------------------------------
  free energy    TOTEN  =       184.08096194 eV

  energy without entropy =      184.08188547  energy(sigma->0) =      184.08142370


--------------------------------------------------------------------------------------------------------




--------------------------------------- Iteration      1(   2)  ---------------------------------------


     EDDAV:  cpu time     12.2844: real time     14.3856
       DOS:  cpu time      0.0001: real time      0.0001
    --------------------------------------------
      LOOP:  cpu time     12.2845: real time     14.3857

 eigenvalue-minimisations  :  1400
 total energy-change (2. order) :-0.1860991E+03  (-0.1804176E+03)
 number of electron      36.0000000 magnetization 
 augmentation part       36.0000000 magnetization 

 Free energy of the ion-electron system (eV)
  ---------------------------------------------------
  alpha Z        PSCENC =       120.67745877
  Ewald energy   TEWEN  =     -2364.42210372
  -Hartree energ DENC   =     -1465.13812013
  -exchange      EXHF   =         0.00000000
  -V(xc)+E(xc)   XCENC  =       137.34766295
  PAW double counting   =      3345.42656771    -3694.17617221
  entropy T*S    EENTRO =        -0.00000000
  eigenvalues    EBANDS =      -133.03945555
  atomic energy  EATOM  =      4051.30602026
  Solvation  Ediel_sol  =         0.00000000
  ---------------------------------------------------
  free energy    TOTEN  =        -2.01814190 eV

  energy without entropy =       -2.01814190  energy(sigma->0) =       -2.01814190


--------------------------------------------------------------------------------------------------------




--------------------------------------- Iteration      1(   3)  ---------------------------------------


     EDDAV:  cpu time     11.4695: real time     12.5542
       DOS:  cpu time      0.0004: real time      0.0004
    --------------------------------------------
      LOOP:  cpu time     11.4699: real time     12.5546

 eigenvalue-minimisations  :  1386
 total energy-change (2. order) :-0.1209823E+02  (-0.1206705E+02)
 number of electron      36.0000000 magnetization 
 augmentation part       36.0000000 magnetization 

 Free energy of the ion-electron system (eV)
  ---------------------------------------------------
  alpha Z        PSCENC =       120.67745877
  Ewald energy   TEWEN  =     -2364.42210372
  -Hartree energ DENC   =     -1465.13812013
  -exchange      EXHF   =         0.00000000
  -V(xc)+E(xc)   XCENC  =       137.34766295
  PAW double counting   =      3345.42656771    -3694.17617221
  entropy T*S    EENTRO =        -0.00000000
  eigenvalues    EBANDS =      -145.13769015
  atomic energy  EATOM  =      4051.30602026
  Solvation  Ediel_sol  =         0.00000000
  ---------------------------------------------------
  free energy    TOTEN  =       -14.11637650 eV

  energy without entropy =      -14.11637650  energy(sigma->0) =      -14.11637650


--------------------------------------------------------------------------------------------------------




--------------------------------------- Iteration      1(   4)  ---------------------------------------


     EDDAV:  cpu time     12.7226: real time     13.6747
       DOS:  cpu time      0.0001: real time      0.0001
    --------------------------------------------
      LOOP:  cpu time     12.7227: real time     13.6749

 eigenvalue-minimisations  :  1568
 total energy-change (2. order) :-0.1405335E+00  (-0.1405167E+00)
 number of electron      36.0000000 magnetization 
 augmentation part       36.0000000 magnetization 

 Free energy of the ion-electron system (eV)
  ---------------------------------------------------
  alpha Z        PSCENC =       120.67745877
  Ewald energy   TEWEN  =     -2364.42210372
  -Hartree energ DENC   =     -1465.13812013
  -exchange      EXHF   =         0.00000000
  -V(xc)+E(xc)   XCENC  =       137.34766295
  PAW double counting   =      3345.42656771    -3694.17617221
  entropy T*S    EENTRO =        -0.00000000
  eigenvalues    EBANDS =      -145.27822363
  atomic energy  EATOM  =      4051.30602026
  Solvation  Ediel_sol  =         0.00000000
  ---------------------------------------------------
  free energy    TOTEN  =       -14.25690998 eV

  energy without entropy =      -14.25690998  energy(sigma->0) =      -14.25690998


--------------------------------------------------------------------------------------------------------




--------------------------------------- Iteration      1(   5)  ---------------------------------------


     EDDAV:  cpu time     11.3415: real time     12.5444
       DOS:  cpu time      0.0002: real time      0.0002
    CHARGE:  cpu time      0.2233: real time      0.2072
    MIXING:  cpu time      0.0037: real time      0.0058
    --------------------------------------------
      LOOP:  cpu time     11.5686: real time     12.7576

 eigenvalue-minimisations  :  1470
 total energy-change (2. order) :-0.2376773E-02  (-0.2376750E-02)
 number of electron      36.0000032 magnetization 
 augmentation part       14.3539617 magnetization 

 Broyden mixing:
  rms(total) = 0.72616E+00    rms(broyden)= 0.72616E+00
  rms(prec ) = 0.10336E+01
  weight for this iteration     100.00

 Free energy of the ion-electron system (eV)
  ---------------------------------------------------
  alpha Z        PSCENC =       120.67745877
  Ewald energy   TEWEN  =     -2364.42210372
  -Hartree energ DENC   =     -1465.13812013
  -exchange      EXHF   =         0.00000000
  -V(xc)+E(xc)   XCENC  =       137.34766295
  PAW double counting   =      3345.42656771    -3694.17617221
  entropy T*S    EENTRO =        -0.00000000
  eigenvalues    EBANDS =      -145.28060040
  atomic energy  EATOM  =      4051.30602026
  Solvation  Ediel_sol  =         0.00000000
  ---------------------------------------------------
  free energy    TOTEN  =       -14.25928675 eV

  energy without entropy =      -14.25928675  energy(sigma->0) =      -14.25928675


--------------------------------------------------------------------------------------------------------




--------------------------------------- Iteration      1(   6)  ---------------------------------------


    POTLOK:  cpu time      0.0831: real time      0.1002
    SETDIJ:  cpu time      0.0089: real time      0.0082
     EDDAV:  cpu time     12.4479: real time     12.9760
       DOS:  cpu time      0.0001: real time      0.0001
    CHARGE:  cpu time      0.2332: real time      0.2062
    MIXING:  cpu time      0.0086: real time      0.0071
    --------------------------------------------
      LOOP:  cpu time     12.7818: real time     13.2978

 eigenvalue-minimisations  :  1582
 total energy-change (2. order) : 0.8768124E+00  (-0.2021630E+00)
 number of electron      36.0000032 magnetization 
 augmentation part       14.5509381 magnetization 

 Broyden mixing:
  rms(total) = 0.57971E+00    rms(broyden)= 0.57971E+00
  rms(prec ) = 0.62610E+00
  weight for this iteration     100.00

 eigenvalues of (default mixing * dielectric matrix)
  average eigenvalue GAMMA=   1.4821
  1.4821

 Free energy of the ion-electron system (eV)
  ---------------------------------------------------
  alpha Z        PSCENC =       120.67745877
  Ewald energy   TEWEN  =     -2364.42210372
  -Hartree energ DENC   =     -1453.53938465
  -exchange      EXHF   =         0.00000000
  -V(xc)+E(xc)   XCENC  =       137.48087705
  PAW double counting   =      3511.87765817    -3855.46589568
  entropy T*S    EENTRO =        -0.00000000
  eigenvalues    EBANDS =      -161.29710451
  atomic energy  EATOM  =      4051.30602026
  Solvation  Ediel_sol  =         0.00000000
  ---------------------------------------------------
  free energy    TOTEN  =       -13.38247430 eV

  energy without entropy =      -13.38247430  energy(sigma->0) =      -13.38247430


--------------------------------------------------------------------------------------------------------




--------------------------------------- Iteration      1(   7)  ---------------------------------------


    POTLOK:  cpu time      0.0916: real time      0.0972
    SETDIJ:  cpu time      0.0072: real time      0.0073
     EDDAV:  cpu time     10.2561: real time     10.5718
       DOS:  cpu time      0.0001: real time      0.0001
    CHARGE:  cpu time      0.2381: real time      0.1985
    MIXING:  cpu time      0.0068: real time      0.0076
    --------------------------------------------
      LOOP:  cpu time     10.5999: real time     10.8825

 eigenvalue-minimisations  :  1274
 total energy-change (2. order) : 0.2450862E-01  (-0.5850467E-01)
 number of electron      36.0000032 magnetization 
 augmentation part       14.5293779 magnetization 

 Broyden mixing:
  rms(total) = 0.30411E+00    rms(broyden)= 0.30411E+00
  rms(prec ) = 0.31860E+00
  weight for this iteration     100.00

 eigenvalues of (default mixing * dielectric matrix)
  average eigenvalue GAMMA=   1.6694
  1.0050  2.3339

 Free energy of the ion-electron system (eV)
  ---------------------------------------------------
  alpha Z        PSCENC =       120.67745877
  Ewald energy   TEWEN  =     -2364.42210372
  -Hartree energ DENC   =     -1455.18338859
  -exchange      EXHF   =         0.00000000
  -V(xc)+E(xc)   XCENC  =       137.85610071
  PAW double counting   =      3746.65573492    -4093.52081014
  entropy T*S    EENTRO =        -0.00000000
  eigenvalues    EBANDS =      -156.72697791
  atomic energy  EATOM  =      4051.30602026
  Solvation  Ediel_sol  =         0.00000000
  ---------------------------------------------------
  free energy    TOTEN  =       -13.35796569 eV

  energy without entropy =      -13.35796569  energy(sigma->0) =      -13.35796569


--------------------------------------------------------------------------------------------------------




--------------------------------------- Iteration      1(   8)  ---------------------------------------


    POTLOK:  cpu time      0.0838: real time      0.0998
    SETDIJ:  cpu time      0.0053: real time      0.0055
     EDDAV:  cpu time     11.6719: real time     12.1639
       DOS:  cpu time      0.0002: real time      0.0002
    CHARGE:  cpu time      0.2473: real time      0.2140
    MIXING:  cpu time      0.0054: real time      0.0055
    --------------------------------------------
      LOOP:  cpu time     12.0137: real time     12.4889

 eigenvalue-minimisations  :  1386
 total energy-change (2. order) : 0.8896657E-03  (-0.1568886E-02)
 number of electron      36.0000032 magnetization 
 augmentation part       14.5188820 magnetization 

 Broyden mixing:
  rms(total) = 0.55508E-01    rms(broyden)= 0.55508E-01
  rms(prec ) = 0.62791E-01
  weight for this iteration     100.00

 eigenvalues of (default mixing * dielectric matrix)
  average eigenvalue GAMMA=   1.5091
  2.3547  1.0863  1.0863

 Free energy of the ion-electron system (eV)
  ---------------------------------------------------
  alpha Z        PSCENC =       120.67745877
  Ewald energy   TEWEN  =     -2364.42210372
  -Hartree energ DENC   =     -1454.00861254
  -exchange      EXHF   =         0.00000000
  -V(xc)+E(xc)   XCENC  =       137.91378994
  PAW double counting   =      3957.00699473    -4305.06456207
  entropy T*S    EENTRO =        -0.00000000
  eigenvalues    EBANDS =      -156.76606139
  atomic energy  EATOM  =      4051.30602026
  Solvation  Ediel_sol  =         0.00000000
  ---------------------------------------------------
  free energy    TOTEN  =       -13.35707602 eV

  energy without entropy =      -13.35707602  energy(sigma->0) =      -13.35707602


--------------------------------------------------------------------------------------------------------




--------------------------------------- Iteration      1(   9)  ---------------------------------------


    POTLOK:  cpu time      0.0987: real time      0.0903
    SETDIJ:  cpu time      0.0065: real time      0.0046
     EDDAV:  cpu time     12.8254: real time     13.1066
       DOS:  cpu time      0.0002: real time      0.0002
    CHARGE:  cpu time      0.2249: real time      0.2033
    MIXING:  cpu time      0.0075: real time      0.0060
    --------------------------------------------
      LOOP:  cpu time     13.1632: real time     13.4110

 eigenvalue-minimisations  :  1512
 total energy-change (2. order) :-0.6102752E-03  (-0.1897959E-03)
 number of electron      36.0000032 magnetization 
 augmentation part       14.5225163 magnetization 

 Broyden mixing:
  rms(total) = 0.13339E-01    rms(broyden)= 0.13339E-01
  rms(prec ) = 0.15741E-01
  weight for this iteration     100.00

 eigenvalues of (default mixing * dielectric matrix)
  average eigenvalue GAMMA=   1.5049
  2.2035  1.1180  1.1180  1.5802

 Free energy of the ion-electron system (eV)
  ---------------------------------------------------
  alpha Z        PSCENC =       120.67745877
  Ewald energy   TEWEN  =     -2364.42210372
  -Hartree energ DENC   =     -1453.30571787
  -exchange      EXHF   =         0.00000000
  -V(xc)+E(xc)   XCENC  =       137.91616225
  PAW double counting   =      4008.04365931    -4356.12757624
  entropy T*S    EENTRO =        -0.00000000
  eigenvalues    EBANDS =      -157.44558908
  atomic energy  EATOM  =      4051.30602026
  Solvation  Ediel_sol  =         0.00000000
  ---------------------------------------------------
  free energy    TOTEN  =       -13.35768630 eV

  energy without entropy =      -13.35768630  energy(sigma->0) =      -13.35768630


--------------------------------------------------------------------------------------------------------




--------------------------------------- Iteration      1(  10)  ---------------------------------------


    POTLOK:  cpu time      0.1141: real time      0.0912
    SETDIJ:  cpu time      0.0066: real time      0.0056
     EDDAV:  cpu time     10.0741: real time     10.9442
       DOS:  cpu time      0.0001: real time      0.0001
    CHARGE:  cpu time      0.2077: real time      0.1940
    MIXING:  cpu time      0.0058: real time      0.0059
    --------------------------------------------
      LOOP:  cpu time     10.4084: real time     11.2411

 eigenvalue-minimisations  :  1302
 total energy-change (2. order) :-0.3444921E-03  (-0.4284087E-04)
 number of electron      36.0000032 magnetization 
 augmentation part       14.5220684 magnetization 

 Broyden mixing:
  rms(total) = 0.51994E-02    rms(broyden)= 0.51994E-02
  rms(prec ) = 0.69727E-02
  weight for this iteration     100.00

 eigenvalues of (default mixing * dielectric matrix)
  average eigenvalue GAMMA=   1.7309
  2.9194  2.6058  1.0973  1.0973  0.9346

 Free energy of the ion-electron system (eV)
  ---------------------------------------------------
  alpha Z        PSCENC =       120.67745877
  Ewald energy   TEWEN  =     -2364.42210372
  -Hartree energ DENC   =     -1453.44624417
  -exchange      EXHF   =         0.00000000
  -V(xc)+E(xc)   XCENC  =       137.92062203
  PAW double counting   =      3995.83292255    -4343.96019507
  entropy T*S    EENTRO =        -0.00000000
  eigenvalues    EBANDS =      -157.26651145
  atomic energy  EATOM  =      4051.30602026
  Solvation  Ediel_sol  =         0.00000000
  ---------------------------------------------------
  free energy    TOTEN  =       -13.35803079 eV

  energy without entropy =      -13.35803079  energy(sigma->0) =      -13.35803079


--------------------------------------------------------------------------------------------------------




--------------------------------------- Iteration      1(  11)  ---------------------------------------


    POTLOK:  cpu time      0.0936: real time      0.0953
    SETDIJ:  cpu time      0.0038: real time      0.0040
     EDDAV:  cpu time     10.0623: real time     11.1097
       DOS:  cpu time      0.0002: real time      0.0002
    CHARGE:  cpu time      0.2599: real time      0.2033
    MIXING:  cpu time      0.0097: real time      0.0085
    --------------------------------------------
      LOOP:  cpu time     10.4295: real time     11.4211

 eigenvalue-minimisations  :  1344
 total energy-change (2. order) :-0.1230174E-03  (-0.1603236E-04)
 number of electron      36.0000032 magnetization 
 augmentation part       14.5222833 magnetization 

 Broyden mixing:
  rms(total) = 0.11933E-02    rms(broyden)= 0.11933E-02
  rms(prec ) = 0.13606E-02
  weight for this iteration     100.00

 eigenvalues of (default mixing * dielectric matrix)
  average eigenvalue GAMMA=   1.6928
  2.8888  2.1539  2.0102  0.9305  1.0867  1.0867

 Free energy of the ion-electron system (eV)
  ---------------------------------------------------
  alpha Z        PSCENC =       120.67745877
  Ewald energy   TEWEN  =     -2364.42210372
  -Hartree energ DENC   =     -1453.50742957
  -exchange      EXHF   =         0.00000000
  -V(xc)+E(xc)   XCENC  =       137.92616516
  PAW double counting   =      3991.01690094    -4339.16125577
  entropy T*S    EENTRO =        -0.00000000
  eigenvalues    EBANDS =      -157.19390989
  atomic energy  EATOM  =      4051.30602026
  Solvation  Ediel_sol  =         0.00000000
  ---------------------------------------------------
  free energy    TOTEN  =       -13.35815381 eV

  energy without entropy =      -13.35815381  energy(sigma->0) =      -13.35815381


--------------------------------------------------------------------------------------------------------




--------------------------------------- Iteration      1(  12)  ---------------------------------------


    POTLOK:  cpu time      0.1146: real time      0.1032
    SETDIJ:  cpu time      0.0027: real time      0.0038
     EDDAV:  cpu time     11.9879: real time     13.4939
       DOS:  cpu time      0.0002: real time      0.0002
    CHARGE:  cpu time      0.2184: real time      0.2740
    MIXING:  cpu time      0.0122: real time      0.0114
    --------------------------------------------
      LOOP:  cpu time     12.3360: real time     13.8865

 eigenvalue-minimisations  :  1526
 total energy-change (2. order) :-0.1639159E-05  (-0.8067369E-06)
 number of electron      36.0000032 magnetization 
 augmentation part       14.5223557 magnetization 

 Broyden mixing:
  rms(total) = 0.10433E-02    rms(broyden)= 0.10433E-02
  rms(prec ) = 0.11404E-02
  weight for this iteration     100.00

 eigenvalues of (default mixing * dielectric matrix)
  average eigenvalue GAMMA=   1.8319
  3.5688  2.7419  2.3172  1.2168  1.0284  1.0284  0.9220

 Free energy of the ion-electron system (eV)
  ---------------------------------------------------
  alpha Z        PSCENC =       120.67745877
  Ewald energy   TEWEN  =     -2364.42210372
  -Hartree energ DENC   =     -1453.51067256
  -exchange      EXHF   =         0.00000000
  -V(xc)+E(xc)   XCENC  =       137.92753898
  PAW double counting   =      3993.24189310    -4341.38232092
  entropy T*S    EENTRO =        -0.00000000
  eigenvalues    EBANDS =      -157.19596937
  atomic energy  EATOM  =      4051.30602026
  Solvation  Ediel_sol  =         0.00000000
  ---------------------------------------------------
  free energy    TOTEN  =       -13.35815545 eV

  energy without entropy =      -13.35815545  energy(sigma->0) =      -13.35815545


--------------------------------------------------------------------------------------------------------




--------------------------------------- Iteration      1(  13)  ---------------------------------------


    POTLOK:  cpu time      0.1194: real time      0.1053
    SETDIJ:  cpu time      0.0039: real time      0.0040
     EDDAV:  cpu time     10.4745: real time     11.9316
       DOS:  cpu time      0.0002: real time      0.0002
    CHARGE:  cpu time      0.1977: real time      0.1993
    MIXING:  cpu time      0.0923: real time      0.0932
    --------------------------------------------
      LOOP:  cpu time     10.8881: real time     12.3335

 eigenvalue-minimisations  :  1288
 total energy-change (2. order) :-0.1707871E-05  (-0.3951935E-06)
 number of electron      36.0000032 magnetization 
 augmentation part       14.5223223 magnetization 

 Broyden mixing:
  rms(total) = 0.51925E-03    rms(broyden)= 0.51925E-03
  rms(prec ) = 0.52735E-03
  weight for this iteration     100.00

 eigenvalues of (default mixing * dielectric matrix)
  average eigenvalue GAMMA=   1.6606
  3.3048  2.7406  2.3782  1.2385  1.0370  1.0370  0.8869  0.6618

 Free energy of the ion-electron system (eV)
  ---------------------------------------------------
  alpha Z        PSCENC =       120.67745877
  Ewald energy   TEWEN  =     -2364.42210372
  -Hartree energ DENC   =     -1453.53792031
  -exchange      EXHF   =         0.00000000
  -V(xc)+E(xc)   XCENC  =       137.92773984
  PAW double counting   =      3991.83561818    -4339.96773603
  entropy T*S    EENTRO =        -0.00000000
  eigenvalues    EBANDS =      -157.17723415
  atomic energy  EATOM  =      4051.30602026
  Solvation  Ediel_sol  =         0.00000000
  ---------------------------------------------------
  free energy    TOTEN  =       -13.35815715 eV

  energy without entropy =      -13.35815715  energy(sigma->0) =      -13.35815715


--------------------------------------------------------------------------------------------------------




--------------------------------------- Iteration      1(  14)  ---------------------------------------


    POTLOK:  cpu time      0.2739: real time      0.3188
    SETDIJ:  cpu time      0.0239: real time      0.0531
     EDDAV:  cpu time      8.9518: real time      9.9769
       DOS:  cpu time      0.0002: real time      0.0002
    --------------------------------------------
      LOOP:  cpu time      9.2498: real time     10.3490

 eigenvalue-minimisations  :  1008
 total energy-change (2. order) : 0.7566132E-07  (-0.1190999E-07)
 number of electron      36.0000032 magnetization 
 augmentation part       14.5223223 magnetization 

 Free energy of the ion-electron system (eV)
  ---------------------------------------------------
  alpha Z        PSCENC =       120.67745877
  Ewald energy   TEWEN  =     -2364.42210372
  -Hartree energ DENC   =     -1453.53563591
  -exchange      EXHF   =         0.00000000
  -V(xc)+E(xc)   XCENC  =       137.92767465
  PAW double counting   =      3992.11101225    -4340.24310323
  entropy T*S    EENTRO =        -0.00000000
  eigenvalues    EBANDS =      -157.17948015
  atomic energy  EATOM  =      4051.30602026
  Solvation  Ediel_sol  =         0.00000000
  ---------------------------------------------------
  free energy    TOTEN  =       -13.35815708 eV

  energy without entropy =      -13.35815708  energy(sigma->0) =      -13.35815708


--------------------------------------------------------------------------------------------------------




 average (electrostatic) potential at core
  the test charge radii are     0.9521  0.9698
  (the norm of the test charge is              1.0000)
       1 -37.4140       2 -37.4140       3 -89.6911       4 -89.6911



 E-fermi :   0.8245     XC(G=0):  -8.8393     alpha+bet : -6.7847

 val. band max:        0.6835463466   @ k =   0.0000   0.0000   0.0000
 cond. band min:       2.1264723879   @ k =   0.0000   0.0000   0.0000
 fundamental gap:      1.4429260413
 Fermi energy:         0.8244827717

 k-point     1 :       0.0000    0.0000    0.0000
  band No.  band energies     occupation 
      1     -11.4316      2.00000
      2     -10.7830      2.00000
      3      -5.1434      2.00000
      4      -5.1351      2.00000
      5      -5.1351      2.00000
      6      -5.0791      2.00000
      7      -5.0791      2.00000
      8      -4.8535      2.00000
      9      -4.8535      2.00000
     10      -4.8061      2.00000
     11      -4.8061      2.00000
     12      -4.6882      2.00000
     13      -3.6074      2.00000
     14       0.0175      2.00000
     15       0.0175      2.00000
     16       0.6255      2.00000
     17       0.6835      2.00000
     18       0.6835      2.00000
     19       2.1265      0.00000
     20       3.4473      0.00000
     21       7.0461      0.00000
     22       7.0461      0.00000
     23       7.2879      0.00000
     24       8.2260      0.00000
     25       8.2260      0.00000
     26       9.0539      0.00000
     27      10.6567      0.00000
     28      10.6568      0.00000

 k-point     2 :       0.1667    0.0000    0.0000
  band No.  band energies     occupation 
      1     -11.3003      2.00000
      2     -10.7145      2.00000
      3      -5.1294      2.00000
      4      -5.1156      2.00000
      5      -5.1122      2.00000
      6      -5.0560      2.00000
      7      -5.0453      2.00000
      8      -4.8663      2.00000
      9      -4.8525      2.00000
     10      -4.8332      2.00000
     11      -4.8014      2.00000
     12      -4.6608      2.00000
     13      -3.4283      2.00000
     14      -0.9682      2.00000
     15      -0.5417      2.00000
     16      -0.2742      2.00000
     17       0.4468      2.00000
     18       0.5172      2.00000
     19       3.2679      0.00000
     20       4.3254      0.00000
     21       6.4747      0.00000
     22       7.4167      0.00000
     23       7.4430      0.00000
     24       8.0830      0.00000
     25       8.6031      0.00000
     26       8.8705      0.00000
     27       9.5897      0.00000
     28      10.4322      0.00000

 k-point     3 :       0.3333    0.0000    0.0000
  band No.  band energies     occupation 
      1     -10.9932      2.00000
      2     -10.5944      2.00000
      3      -5.1021      2.00000
      4      -5.0763      2.00000
      5      -5.0481      2.00000
      6      -4.9759      2.00000
      7      -4.9643      2.00000
      8      -4.8944      2.00000
      9      -4.8444      2.00000
     10      -4.8339      2.00000
     11      -4.7914      2.00000
     12      -4.6071      2.00000
     13      -3.2152      2.00000
     14      -2.1814      2.00000
     15      -1.8142      2.00000
     16      -0.7661      2.00000
     17      -0.0903      2.00000
     18       0.1852      2.00000
     19       4.2112      0.00000
     20       4.5394      0.00000
     21       6.2503      0.00000
     22       7.0500      0.00000
     23       7.6778      0.00000
     24       8.8241      0.00000
     25       9.0349      0.00000
     26       9.6453      0.00000
     27      10.3832      0.00000
     28      11.4753      0.00000

 k-point     4 :       0.5000    0.0000    0.0000
  band No.  band energies     occupation 
      1     -10.7893      2.00000
      2     -10.5686      2.00000
      3      -5.0967      2.00000
      4      -5.0646      2.00000
      5      -4.9551      2.00000
      6      -4.9502      2.00000
      7      -4.9422      2.00000
      8      -4.8927      2.00000
      9      -4.8140      2.00000
     10      -4.7843      2.00000
     11      -4.7087      2.00000
     12      -4.6661      2.00000
     13      -3.3850      2.00000
     14      -2.7888      2.00000
     15      -1.8271      2.00000
     16      -0.9851      2.00000
     17      -0.5530      2.00000
     18       0.0256      2.00000
     19       4.3790      0.00000
     20       4.4120      0.00000
     21       5.8957      0.00000
     22       7.3455      0.00000
     23       7.6217      0.00000
     24       8.8700      0.00000
     25       9.2421      0.00000
     26      11.2778      0.00000
     27      11.5027      0.00000
     28      12.3820      0.00000

 k-point     5 :       0.1667    0.1667    0.0000
  band No.  band energies     occupation 
      1     -11.0788      2.00000
      2     -10.6202      2.00000
      3      -5.0963      2.00000
      4      -5.0891      2.00000
      5      -5.0637      2.00000
      6      -5.0178      2.00000
      7      -4.9837      2.00000
      8      -4.8766      2.00000
      9      -4.8553      2.00000
     10      -4.8462      2.00000
     11      -4.7934      2.00000
     12      -4.6198      2.00000
     13      -3.2056      2.00000
     14      -1.6951      2.00000
     15      -1.6545      2.00000
     16      -0.8484      2.00000
     17       0.0530      2.00000
     18       0.1069      2.00000
     19       4.2556      0.00000
     20       5.1651      0.00000
     21       6.3433      0.00000
     22       6.6322      0.00000
     23       7.8082      0.00000
     24       8.0030      0.00000
     25       9.0333      0.00000
     26       9.1704      0.00000
     27      10.3812      0.00000
     28      10.5520      0.00000

 k-point     6 :       0.3333    0.1667    0.0000
  band No.  band energies     occupation 
      1     -10.7966      2.00000
      2     -10.5648      2.00000
      3      -5.0963      2.00000
      4      -5.0508      2.00000
      5      -4.9687      2.00000
      6      -4.9490      2.00000
      7      -4.9116      2.00000
      8      -4.8814      2.00000
      9      -4.8385      2.00000
     10      -4.8276      2.00000
     11      -4.7569      2.00000
     12      -4.5894      2.00000
     13      -3.2350      2.00000
     14      -2.6253      2.00000
     15      -1.7974      2.00000
     16      -1.4099      2.00000
     17      -0.4940      2.00000
     18      -0.4060      2.00000
     19       4.9524      0.00000
     20       5.2907      0.00000
     21       5.8112      0.00000
     22       7.2587      0.00000
     23       7.5978      0.00000
     24       8.8453      0.00000
     25       9.5068      0.00000
     26       9.5939      0.00000
     27      11.1160      0.00000
     28      11.4073      0.00000

 k-point     7 :       0.3333    0.3333    0.0000
  band No.  band energies     occupation 
      1     -10.6233      2.00000
      2     -10.6233      2.00000
      3      -5.1059      2.00000
      4      -4.9889      2.00000
      5      -4.9889      2.00000
      6      -4.9259      2.00000
      7      -4.8679      2.00000
      8      -4.8679      2.00000
      9      -4.8461      2.00000
     10      -4.8237      2.00000
     11      -4.6410      2.00000
     12      -4.6410      2.00000
     13      -2.9548      2.00000
     14      -2.9548      2.00000
     15      -2.2141      2.00000
     16      -1.0661      2.00000
     17      -1.0661      2.00000
     18      -0.8858      2.00000
     19       5.3978      0.00000
     20       5.7408      0.00000
     21       5.7408      0.00000
     22       8.2395      0.00000
     23       8.3978      0.00000
     24       8.3978      0.00000
     25       9.3406      0.00000
     26       9.3406      0.00000
     27      10.6192      0.00000
     28      11.5340      0.00000

 k-point     8 :       0.0000    0.0000    0.2500
  band No.  band energies     occupation 
      1     -11.3463      2.00000
      2     -10.8891      2.00000
      3      -5.1357      2.00000
      4      -5.1290      2.00000
      5      -5.1290      2.00000
      6      -5.0895      2.00000
      7      -5.0895      2.00000
      8      -4.8943      2.00000
      9      -4.8449      2.00000
     10      -4.8449      2.00000
     11      -4.8113      2.00000
     12      -4.8113      2.00000
     13      -3.0175      2.00000
     14      -0.3928      2.00000
     15       0.1089      2.00000
     16       0.1089      2.00000
     17       0.5792      2.00000
     18       0.5792      2.00000
     19       3.0239      0.00000
     20       3.5611      0.00000
     21       6.9284      0.00000
     22       7.1389      0.00000
     23       7.1389      0.00000
     24       7.9438      0.00000
     25       7.9438      0.00000
     26       8.2975      0.00000
     27      11.1469      0.00000
     28      11.1469      0.00000

 k-point     9 :       0.1667    0.0000    0.2500
  band No.  band energies     occupation 
      1     -11.2218      2.00000
      2     -10.8085      2.00000
      3      -5.1264      2.00000
      4      -5.1081      2.00000
      5      -5.1041      2.00000
      6      -5.0658      2.00000
      7      -5.0568      2.00000
      8      -4.9099      2.00000
      9      -4.8508      2.00000
     10      -4.8443      2.00000
     11      -4.8081      2.00000
     12      -4.7752      2.00000
     13      -2.9322      2.00000
     14      -1.0508      2.00000
     15      -0.7562      2.00000
     16      -0.1684      2.00000
     17       0.2132      2.00000
     18       0.3892      2.00000
     19       3.7428      0.00000
     20       4.4198      0.00000
     21       6.4040      0.00000
     22       6.9758      0.00000
     23       7.5717      0.00000
     24       7.5894      0.00000
     25       8.5413      0.00000
     26       8.5643      0.00000
     27      10.2211      0.00000
     28      10.8901      0.00000

 k-point    10 :       0.3333    0.0000    0.2500
  band No.  band energies     occupation 
      1     -10.9363      2.00000
      2     -10.6541      2.00000
      3      -5.1034      2.00000
      4      -5.0621      2.00000
      5      -5.0570      2.00000
      6      -4.9908      2.00000
      7      -4.9694      2.00000
      8      -4.9183      2.00000
      9      -4.8341      2.00000
     10      -4.8290      2.00000
     11      -4.7994      2.00000
     12      -4.6897      2.00000
     13      -3.1095      2.00000
     14      -2.3516      2.00000
     15      -1.4879      2.00000
     16      -0.6415      2.00000
     17      -0.0882      2.00000
     18       0.0271      2.00000
     19       4.0254      0.00000
     20       4.6562      0.00000
     21       6.3799      0.00000
     22       6.4497      0.00000
     23       8.0293      0.00000
     24       8.5380      0.00000
     25       8.8529      0.00000
     26       9.8982      0.00000
     27      10.1197      0.00000
     28      11.7180      0.00000

 k-point    11 :       0.5000    0.0000    0.2500
  band No.  band energies     occupation 
      1     -10.7548      2.00000
      2     -10.5984      2.00000
      3      -5.1002      2.00000
      4      -5.0468      2.00000
      5      -5.0142      2.00000
      6      -4.9593      2.00000
      7      -4.9406      2.00000
      8      -4.8796      2.00000
      9      -4.8119      2.00000
     10      -4.7922      2.00000
     11      -4.7015      2.00000
     12      -4.6656      2.00000
     13      -3.4735      2.00000
     14      -3.0370      2.00000
     15      -1.3494      2.00000
     16      -0.8530      2.00000
     17      -0.3576      2.00000
     18      -0.1433      2.00000
     19       3.9760      0.00000
     20       4.4265      0.00000
     21       6.2435      0.00000
     22       6.3945      0.00000
     23       8.0472      0.00000
     24       8.5461      0.00000
     25       9.5483      0.00000
     26      10.6056      0.00000
     27      11.5267      0.00000
     28      12.8800      0.00000

 k-point    12 :       0.1667    0.1667    0.2500
  band No.  band energies     occupation 
      1     -11.0148      2.00000
      2     -10.6905      2.00000
      3      -5.0896      2.00000
      4      -5.0852      2.00000
      5      -5.0599      2.00000
      6      -5.0267      2.00000
      7      -4.9969      2.00000
      8      -4.9165      2.00000
      9      -4.8558      2.00000
     10      -4.8342      2.00000
     11      -4.7997      2.00000
     12      -4.7143      2.00000
     13      -2.9557      2.00000
     14      -1.9572      2.00000
     15      -1.3249      2.00000
     16      -0.7794      2.00000
     17      -0.1115      2.00000
     18       0.0570      2.00000
     19       4.3182      0.00000
     20       5.1728      0.00000
     21       6.3641      0.00000
     22       6.5473      0.00000
     23       7.5340      0.00000
     24       7.8090      0.00000
     25       8.7172      0.00000
     26       9.3778      0.00000
     27      10.5322      0.00000
     28      10.8698      0.00000

 k-point    13 :       0.3333    0.1667    0.2500
  band No.  band energies     occupation 
      1     -10.7607      2.00000
      2     -10.5964      2.00000
      3      -5.0820      2.00000
      4      -5.0522      2.00000
      5      -4.9990      2.00000
      6      -4.9639      2.00000
      7      -4.9206      2.00000
      8      -4.8973      2.00000
      9      -4.8299      2.00000
     10      -4.8223      2.00000
     11      -4.7421      2.00000
     12      -4.6209      2.00000
     13      -3.2971      2.00000
     14      -2.8520      2.00000
     15      -1.5149      2.00000
     16      -1.1016      2.00000
     17      -0.6225      2.00000
     18      -0.2739      2.00000
     19       4.5554      0.00000
     20       5.2018      0.00000
     21       6.2914      0.00000
     22       6.6537      0.00000
     23       7.4854      0.00000
     24       8.5691      0.00000
     25       9.2733      0.00000
     26       9.9493      0.00000
     27      10.9231      0.00000
     28      11.8232      0.00000

 k-point    14 :       0.3333    0.3333    0.2500
  band No.  band energies     occupation 
      1     -10.6194      2.00000
      2     -10.6194      2.00000
      3      -5.0805      2.00000
      4      -5.0085      2.00000
      5      -5.0085      2.00000
      6      -4.9482      2.00000
      7      -4.8716      2.00000
      8      -4.8716      2.00000
      9      -4.8476      2.00000
     10      -4.8384      2.00000
     11      -4.6254      2.00000
     12      -4.6254      2.00000
     13      -3.1362      2.00000
     14      -3.1362      2.00000
     15      -2.0453      2.00000
     16      -1.1200      2.00000
     17      -0.6898      2.00000
     18      -0.6898      2.00000
     19       5.3130      0.00000
     20       5.3130      0.00000
     21       5.8883      0.00000
     22       7.7361      0.00000
     23       7.7361      0.00000
     24       8.0028      0.00000
     25      10.0789      0.00000
     26      10.0789      0.00000
     27      10.4560      0.00000
     28      10.9014      0.00000

 k-point    15 :       0.0000    0.0000    0.5000
  band No.  band energies     occupation 
      1     -11.1279      2.00000
      2     -11.1279      2.00000
      3      -5.1114      2.00000
      4      -5.1114      2.00000
      5      -5.1114      2.00000
      6      -5.1114      2.00000
      7      -5.0782      2.00000
      8      -5.0782      2.00000
      9      -4.8265      2.00000
     10      -4.8265      2.00000
     11      -4.8265      2.00000
     12      -4.8265      2.00000
     13      -1.8118      2.00000
     14      -1.8118      2.00000
     15       0.3376      2.00000
     16       0.3376      2.00000
     17       0.3376      2.00000
     18       0.3376      2.00000
     19       3.6766      0.00000
     20       3.6766      0.00000
     21       7.1047      0.00000
     22       7.1047      0.00000
     23       7.4575      0.00000
     24       7.4575      0.00000
     25       7.4575      0.00000
     26       7.4575      0.00000
     27      12.1517      0.00000
     28      12.1517      0.00000

 k-point    16 :       0.1667    0.0000    0.5000
  band No.  band energies     occupation 
      1     -11.0228      2.00000
      2     -11.0228      2.00000
      3      -5.1011      2.00000
      4      -5.1011      2.00000
      5      -5.0822      2.00000
      6      -5.0822      2.00000
      7      -5.0560      2.00000
      8      -5.0560      2.00000
      9      -4.8254      2.00000
     10      -4.8254      2.00000
     11      -4.8223      2.00000
     12      -4.8223      2.00000
     13      -1.9685      2.00000
     14      -1.9685      2.00000
     15      -0.3271      2.00000
     16      -0.3271      2.00000
     17       0.0995      2.00000
     18       0.0995      2.00000
     19       4.4260      0.00000
     20       4.4260      0.00000
     21       6.3267      0.00000
     22       6.3267      0.00000
     23       7.8203      0.00000
     24       7.8203      0.00000
     25       8.0025      0.00000
     26       8.0025      0.00000
     27      11.5766      0.00000
     28      11.5766      0.00000

 k-point    17 :       0.3333    0.0000    0.5000
  band No.  band energies     occupation 
      1     -10.7966      2.00000
      2     -10.7966      2.00000
      3      -5.0865      2.00000
      4      -5.0865      2.00000
      5      -5.0269      2.00000
      6      -5.0269      2.00000
      7      -4.9647      2.00000
      8      -4.9647      2.00000
      9      -4.8156      2.00000
     10      -4.8156      2.00000
     11      -4.7839      2.00000
     12      -4.7839      2.00000
     13      -2.7915      2.00000
     14      -2.7915      2.00000
     15      -0.6265      2.00000
     16      -0.6265      2.00000
     17      -0.3234      2.00000
     18      -0.3234      2.00000
     19       4.3656      0.00000
     20       4.3656      0.00000
     21       6.1346      0.00000
     22       6.1346      0.00000
     23       8.5641      0.00000
     24       8.5641      0.00000
     25       8.9074      0.00000
     26       8.9074      0.00000
     27      11.2760      0.00000
     28      11.2760      0.00000

 k-point    18 :       0.5000    0.0000    0.5000
  band No.  band energies     occupation 
      1     -10.6742      2.00000
      2     -10.6742      2.00000
      3      -5.0829      2.00000
      4      -5.0829      2.00000
      5      -5.0029      2.00000
      6      -5.0029      2.00000
      7      -4.9046      2.00000
      8      -4.9046      2.00000
      9      -4.8046      2.00000
     10      -4.8046      2.00000
     11      -4.6823      2.00000
     12      -4.6823      2.00000
     13      -3.3832      2.00000
     14      -3.3832      2.00000
     15      -0.5587      2.00000
     16      -0.5587      2.00000
     17      -0.5159      2.00000
     18      -0.5159      2.00000
     19       4.0821      0.00000
     20       4.0821      0.00000
     21       5.9535      0.00000
     22       5.9535      0.00000
     23       9.1451      0.00000
     24       9.1451      0.00000
     25       9.1652      0.00000
     26       9.1652      0.00000
     27      12.0793      0.00000
     28      12.0793      0.00000

 k-point    19 :       0.1667    0.1667    0.5000
  band No.  band energies     occupation 
      1     -10.8559      2.00000
      2     -10.8559      2.00000
      3      -5.0737      2.00000
      4      -5.0737      2.00000
      5      -5.0438      2.00000
      6      -5.0438      2.00000
      7      -5.0083      2.00000
      8      -5.0083      2.00000
      9      -4.8242      2.00000
     10      -4.8242      2.00000
     11      -4.7955      2.00000
     12      -4.7955      2.00000
     13      -2.4739      2.00000
     14      -2.4739      2.00000
     15      -0.5973      2.00000
     16      -0.5973      2.00000
     17      -0.4133      2.00000
     18      -0.4133      2.00000
     19       4.8459      0.00000
     20       4.8459      0.00000
     21       6.2592      0.00000
     22       6.2592      0.00000
     23       7.6545      0.00000
     24       7.6545      0.00000
     25       8.7835      0.00000
     26       8.7835      0.00000
     27      11.3723      0.00000
     28      11.3723      0.00000

 k-point    20 :       0.3333    0.1667    0.5000
  band No.  band energies     occupation 
      1     -10.6764      2.00000
      2     -10.6764      2.00000
      3      -5.0593      2.00000
      4      -5.0593      2.00000
      5      -5.0069      2.00000
      6      -5.0069      2.00000
      7      -4.9190      2.00000
      8      -4.9190      2.00000
      9      -4.8217      2.00000
     10      -4.8217      2.00000
     11      -4.6896      2.00000
     12      -4.6896      2.00000
     13      -3.1863      2.00000
     14      -3.1863      2.00000
     15      -1.0777      2.00000
     16      -1.0777      2.00000
     17      -0.4074      2.00000
     18      -0.4074      2.00000
     19       4.6194      0.00000
     20       4.6194      0.00000
     21       6.4515      0.00000
     22       6.4515      0.00000
     23       7.9683      0.00000
     24       7.9683      0.00000
     25       9.3090      0.00000
     26       9.3090      0.00000
     27      11.6502      0.00000
     28      11.6502      0.00000

 k-point    21 :       0.3333    0.3333    0.5000
  band No.  band energies     occupation 
      1     -10.6154      2.00000
      2     -10.6154      2.00000
      3      -5.0282      2.00000
      4      -5.0282      2.00000
      5      -5.0149      2.00000
      6      -5.0149      2.00000
      7      -4.8746      2.00000
      8      -4.8746      2.00000
      9      -4.8487      2.00000
     10      -4.8487      2.00000
     11      -4.6103      2.00000
     12      -4.6103      2.00000
     13      -3.2791      2.00000
     14      -3.2791      2.00000
     15      -1.6132      2.00000
     16      -1.6132      2.00000
     17      -0.3228      2.00000
     18      -0.3228      2.00000
     19       4.8403      0.00000
     20       4.8403      0.00000
     21       7.0383      0.00000
     22       7.0383      0.00000
     23       7.5141      0.00000
     24       7.5141      0.00000
     25      10.2110      0.00000
     26      10.2110      0.00000
     27      10.2953      0.00000
     28      10.2953      0.00000


--------------------------------------------------------------------------------------------------------


 soft charge-density along one line, spin component           1
         0         1         2         3         4         5         6         7         8         9
 total charge-density along one line

 pseudopotential strength for first ion, spin component:           1
-10.708   0.000   0.000  -0.001  -0.000 -11.022   0.000   0.000
  0.000 -10.709   0.000  -0.000  -0.001   0.000 -11.023   0.000
  0.000   0.000 -10.707   0.000  -0.000   0.000   0.000 -11.021
 -0.001  -0.000   0.000 -10.709   0.000  -0.001  -0.000   0.000
 -0.000  -0.001  -0.000   0.000 -10.708  -0.000  -0.001  -0.000
-11.022   0.000   0.000  -0.001  -0.000 -11.264   0.000   0.000
  0.000 -11.023   0.000  -0.000  -0.001   0.000 -11.264   0.000
  0.000   0.000 -11.021   0.000  -0.000   0.000   0.000 -11.262
[...]
     23       7.5212      0.00000
     24       7.8122      0.00000
     25       8.7102      0.00000
     26       9.3872      0.00000
     27      10.5363      0.00000
     28      10.8638      0.00000

 k-point    13 :       0.3333    0.1667    0.2500
  band No.  band energies     occupation 
      1     -10.7603      2.00000
      2     -10.5965      2.00000
      3      -5.0814      2.00000
      4      -5.0509      2.00000
      5      -4.9973      2.00000
      6      -4.9652      2.00000
      7      -4.9197      2.00000
      8      -4.8982      2.00000
      9      -4.8298      2.00000
     10      -4.8224      2.00000
     11      -4.7427      2.00000
     12      -4.6210      2.00000
     13      -3.2990      2.00000
     14      -2.8584      2.00000
     15      -1.5150      2.00000
     16      -1.0981      2.00000
     17      -0.6314      2.00000
     18      -0.2660      2.00000
     19       4.5602      0.00000
     20       5.2031      0.00000
     21       6.2986      0.00000
     22       6.6501      0.00000
     23       7.4860      0.00000
     24       8.5636      0.00000
     25       9.2732      0.00000
     26       9.9559      0.00000
     27      10.9270      0.00000
     28      11.8284      0.00000

 k-point    14 :       0.3333    0.3333    0.2500
  band No.  band energies     occupation 
      1     -10.6191      2.00000
      2     -10.6191      2.00000
      3      -5.0798      2.00000
      4      -5.0062      2.00000
      5      -5.0062      2.00000
      6      -4.9493      2.00000
      7      -4.8716      2.00000
      8      -4.8716      2.00000
      9      -4.8480      2.00000
     10      -4.8384      2.00000
     11      -4.6253      2.00000
     12      -4.6253      2.00000
     13      -3.1417      2.00000
     14      -3.1417      2.00000
     15      -2.0501      2.00000
     16      -1.1315      2.00000
     17      -0.6811      2.00000
     18      -0.6811      2.00000
     19       5.3166      0.00000
     20       5.3166      0.00000
     21       5.9063      0.00000
     22       7.7279      0.00000
     23       7.7279      0.00000
     24       8.0093      0.00000
     25      10.0737      0.00000
     26      10.0737      0.00000
     27      10.4533      0.00000
     28      10.9065      0.00000

 k-point    15 :       0.0000    0.0000    0.5000
  band No.  band energies     occupation 
      1     -11.1291      2.00000
      2     -11.1291      2.00000
      3      -5.1141      2.00000
      4      -5.1141      2.00000
      5      -5.1141      2.00000
      6      -5.1141      2.00000
      7      -5.0741      2.00000
      8      -5.0741      2.00000
      9      -4.8265      2.00000
     10      -4.8265      2.00000
     11      -4.8265      2.00000
     12      -4.8265      2.00000
     13      -1.8002      2.00000
     14      -1.8002      2.00000
     15       0.3363      2.00000
     16       0.3363      2.00000
     17       0.3363      2.00000
     18       0.3363      2.00000
     19       3.6683      0.00000
     20       3.6683      0.00000
     21       7.1012      0.00000
     22       7.1012      0.00000
     23       7.4534      0.00000
     24       7.4534      0.00000
     25       7.4534      0.00000
     26       7.4534      0.00000
     27      12.1521      0.00000
     28      12.1521      0.00000

 k-point    16 :       0.1667    0.0000    0.5000
  band No.  band energies     occupation 
      1     -11.0237      2.00000
      2     -11.0237      2.00000
      3      -5.1028      2.00000
      4      -5.1028      2.00000
      5      -5.0844      2.00000
      6      -5.0844      2.00000
      7      -5.0533      2.00000
      8      -5.0533      2.00000
      9      -4.8254      2.00000
     10      -4.8254      2.00000
     11      -4.8220      2.00000
     12      -4.8220      2.00000
     13      -1.9595      2.00000
     14      -1.9595      2.00000
     15      -0.3285      2.00000
     16      -0.3285      2.00000
     17       0.0967      2.00000
     18       0.0967      2.00000
     19       4.4226      0.00000
     20       4.4226      0.00000
     21       6.3240      0.00000
     22       6.3240      0.00000
     23       7.8120      0.00000
     24       7.8120      0.00000
     25       8.0027      0.00000
     26       8.0027      0.00000
     27      11.5860      0.00000
     28      11.5860      0.00000

 k-point    17 :       0.3333    0.0000    0.5000
  band No.  band energies     occupation 
      1     -10.7969      2.00000
      2     -10.7969      2.00000
      3      -5.0856      2.00000
      4      -5.0856      2.00000
      5      -5.0283      2.00000
      6      -5.0283      2.00000
      7      -4.9646      2.00000
      8      -4.9646      2.00000
      9      -4.8157      2.00000
     10      -4.8157      2.00000
     11      -4.7836      2.00000
     12      -4.7836      2.00000
     13      -2.7921      2.00000
     14      -2.7921      2.00000
     15      -0.6209      2.00000
     16      -0.6209      2.00000
     17      -0.3286      2.00000
     18      -0.3286      2.00000
     19       4.3689      0.00000
     20       4.3689      0.00000
     21       6.1267      0.00000
     22       6.1267      0.00000
     23       8.5599      0.00000
     24       8.5599      0.00000
     25       8.9195      0.00000
     26       8.9195      0.00000
     27      11.2805      0.00000
     28      11.2805      0.00000

 k-point    18 :       0.5000    0.0000    0.5000
  band No.  band energies     occupation 
      1     -10.6740      2.00000
      2     -10.6740      2.00000
      3      -5.0816      2.00000
      4      -5.0816      2.00000
      5      -5.0038      2.00000
      6      -5.0038      2.00000
      7      -4.9035      2.00000
      8      -4.9035      2.00000
      9      -4.8048      2.00000
     10      -4.8048      2.00000
     11      -4.6825      2.00000
     12      -4.6825      2.00000
     13      -3.3878      2.00000
     14      -3.3878      2.00000
     15      -0.5507      2.00000
     16      -0.5507      2.00000
     17      -0.5222      2.00000
     18      -0.5222      2.00000
     19       4.0870      0.00000
     20       4.0870      0.00000
     21       5.9433      0.00000
     22       5.9433      0.00000
     23       9.1481      0.00000
     24       9.1481      0.00000
     25       9.1824      0.00000
     26       9.1824      0.00000
     27      12.0778      0.00000
     28      12.0778      0.00000

 k-point    19 :       0.1667    0.1667    0.5000
  band No.  band energies     occupation 
      1     -10.8563      2.00000
      2     -10.8563      2.00000
      3      -5.0729      2.00000
      4      -5.0729      2.00000
      5      -5.0454      2.00000
      6      -5.0454      2.00000
      7      -5.0084      2.00000
      8      -5.0084      2.00000
      9      -4.8240      2.00000
     10      -4.8240      2.00000
     11      -4.7953      2.00000
     12      -4.7953      2.00000
     13      -2.4715      2.00000
     14      -2.4715      2.00000
     15      -0.5962      2.00000
     16      -0.5962      2.00000
     17      -0.4160      2.00000
     18      -0.4160      2.00000
     19       4.8506      0.00000
     20       4.8506      0.00000
     21       6.2527      0.00000
     22       6.2527      0.00000
     23       7.6467      0.00000
     24       7.6467      0.00000
     25       8.7904      0.00000
     26       8.7904      0.00000
     27      11.3771      0.00000
     28      11.3771      0.00000

 k-point    20 :       0.3333    0.1667    0.5000
  band No.  band energies     occupation 
      1     -10.6762      2.00000
      2     -10.6762      2.00000
      3      -5.0577      2.00000
      4      -5.0577      2.00000
      5      -5.0072      2.00000
      6      -5.0072      2.00000
      7      -4.9193      2.00000
      8      -4.9193      2.00000
      9      -4.8217      2.00000
     10      -4.8217      2.00000
     11      -4.6898      2.00000
     12      -4.6898      2.00000
     13      -3.1897      2.00000
     14      -3.1897      2.00000
     15      -1.0832      2.00000
     16      -1.0832      2.00000
     17      -0.4015      2.00000
     18      -0.4015      2.00000
     19       4.6258      0.00000
     20       4.6258      0.00000
     21       6.4437      0.00000
     22       6.4437      0.00000
     23       7.9749      0.00000
     24       7.9749      0.00000
     25       9.3087      0.00000
     26       9.3087      0.00000
     27      11.6562      0.00000
     28      11.6562      0.00000

 k-point    21 :       0.3333    0.3333    0.5000
  band No.  band energies     occupation 
      1     -10.6151      2.00000
      2     -10.6151      2.00000
      3      -5.0256      2.00000
      4      -5.0256      2.00000
      5      -5.0151      2.00000
      6      -5.0151      2.00000
      7      -4.8750      2.00000
      8      -4.8750      2.00000
      9      -4.8489      2.00000
     10      -4.8489      2.00000
     11      -4.6102      2.00000
     12      -4.6102      2.00000
     13      -3.2834      2.00000
     14      -3.2834      2.00000
     15      -1.6209      2.00000
     16      -1.6209      2.00000
     17      -0.3153      2.00000
     18      -0.3153      2.00000
     19       4.8457      0.00000
     20       4.8457      0.00000
     21       7.0514      0.00000
     22       7.0514      0.00000
     23       7.5043      0.00000
     24       7.5043      0.00000
     25      10.2031      0.00000
     26      10.2031      0.00000
     27      10.2957      0.00000
     28      10.2957      0.00000


--------------------------------------------------------------------------------------------------------


 soft charge-density along one line, spin component           1
         0         1         2         3         4         5         6         7         8         9
 total charge-density along one line

 pseudopotential strength for first ion, spin component:           1
-10.707   0.000  -0.000  -0.001   0.000 -11.021   0.000  -0.000
  0.000 -10.709   0.000  -0.000  -0.001   0.000 -11.023   0.000
 -0.000   0.000 -10.707   0.000  -0.000  -0.000   0.000 -11.021
 -0.001  -0.000   0.000 -10.709   0.000  -0.001  -0.000   0.000
  0.000  -0.001  -0.000   0.000 -10.707   0.000  -0.001  -0.000
-11.021   0.000  -0.000  -0.001   0.000 -11.263   0.000  -0.000
  0.000 -11.023   0.000  -0.000  -0.001   0.000 -11.265   0.000
 -0.000   0.000 -11.021   0.000  -0.000  -0.000   0.000 -11.263
 -0.001  -0.000   0.000 -11.023   0.000  -0.001  -0.000   0.000
  0.000  -0.001  -0.000   0.000 -11.021   0.000  -0.001  -0.000
  0.000  -0.000  -0.000   0.000  -0.000   0.000  -0.000  -0.000
  0.000  -0.000  -0.000   0.000  -0.000   0.000  -0.000  -0.000
 -0.000   0.002  -0.000  -0.000  -0.001  -0.000   0.001  -0.000
 -0.000   0.000  -0.001  -0.000   0.000  -0.000   0.000  -0.001
 -0.001  -0.000   0.000   0.002  -0.000  -0.001  -0.000   0.000
 -0.000   0.002  -0.000  -0.000  -0.001  -0.000   0.001  -0.000
 -0.000  -0.000  -0.001  -0.000   0.000  -0.000   0.000  -0.000
 -0.001  -0.000   0.000   0.002  -0.000  -0.001  -0.000   0.000
 total augmentation occupancy for first ion, spin component:           1
  3.117   0.000   0.000  -0.476   0.000  -1.066  -0.000  -0.000   0.466  -0.000   0.000  -0.000   0.000  -0.000  -0.399  -0.000
  0.000   2.769   0.000  -0.000  -0.476  -0.000  -0.723  -0.000   0.000   0.466   0.000  -0.000   0.282  -0.000  -0.000  -0.038
  0.000   0.000   3.433  -0.000  -0.000  -0.000  -0.000  -1.371   0.000   0.000   0.026  -0.004   0.000  -0.472  -0.000  -0.000
 -0.476  -0.000  -0.000   2.769  -0.000   0.466   0.000   0.000  -0.723   0.000  -0.000   0.000  -0.000   0.000   0.282   0.000
  0.000  -0.476  -0.000  -0.000   3.117  -0.000   0.466   0.000   0.000  -1.066  -0.000   0.000  -0.399   0.000  -0.000   0.054
 -1.066  -0.000  -0.000   0.466  -0.000   1.011   0.000   0.000  -0.457   0.000  -0.000   0.000  -0.000   0.000   0.383   0.000
 -0.000  -0.723  -0.000   0.000   0.466   0.000   0.673   0.000  -0.000  -0.457  -0.000   0.000  -0.271   0.000   0.000   0.044
 -0.000  -0.000  -1.371   0.000   0.000   0.000   0.000   1.304  -0.000  -0.000  -0.026   0.005  -0.000   0.452   0.000   0.000
  0.466   0.000   0.000  -0.723   0.000  -0.457  -0.000  -0.000   0.673  -0.000   0.000   0.000   0.000  -0.000  -0.271  -0.000
 -0.000   0.466   0.000   0.000  -1.066   0.000  -0.457  -0.000  -0.000   1.011   0.000  -0.000   0.383  -0.000   0.000  -0.062
  0.000   0.000   0.026   0.000  -0.000   0.000  -0.000  -0.026   0.000   0.000   2.041  -0.408   0.000  -0.006  -0.000  -0.000
 -0.000  -0.000  -0.004   0.000   0.000   0.000   0.000   0.005   0.000  -0.000  -0.408   0.101  -0.000   0.002   0.000  -0.000
  0.000   0.282   0.000  -0.000  -0.399  -0.000  -0.271  -0.000   0.000   0.383   0.000  -0.000   0.260  -0.000  -0.000  -0.042
 -0.000  -0.000  -0.472   0.000   0.000   0.000   0.000   0.452  -0.000  -0.000  -0.006   0.002   0.000   0.253   0.000   0.000
 -0.399  -0.000  -0.000   0.282  -0.000   0.383   0.000   0.000  -0.271   0.000  -0.000   0.000  -0.000   0.000   0.260   0.000
 -0.000  -0.038  -0.000   0.000   0.054   0.000   0.044   0.000  -0.000  -0.062  -0.000  -0.000  -0.042   0.000   0.000   0.008
  0.000   0.000   0.064   0.000  -0.000  -0.000  -0.000  -0.072  -0.000   0.000   0.002  -0.001   0.000  -0.041   0.000  -0.000
  0.054   0.000   0.000  -0.038   0.000  -0.062  -0.000  -0.000   0.044  -0.000   0.000   0.000   0.000  -0.000  -0.042  -0.000


------------------------ aborting loop because EDIFF is reached ----------------------------------------


    CHARGE:  cpu time      0.2123: real time      0.1975
    FORLOC:  cpu time      0.0071: real time      0.0059
    FORNL :  cpu time      0.0625: real time      0.0628
    STRESS:  cpu time      0.4939: real time      0.5154
    FORCOR:  cpu time      0.1518: real time      0.1513
    FORHAR:  cpu time      0.1489: real time      0.1695
    MIXING:  cpu time      0.0055: real time      0.0058
    OFIELD:  cpu time      0.0000: real time      0.0000

  FORCE on cell =-STRESS in cart. coord.  units (eV):
  Direction    XX          YY          ZZ          XY          YZ          ZX
  --------------------------------------------------------------------------------------
  Alpha Z   120.67746   120.67746   120.67746
  Ewald    -794.51380  -794.51380  -775.33514     0.00000    -0.00000    -0.00000
  Hartree   479.03630   479.03630   495.52142     0.00000    -0.00000    -0.00000
  E(xc)    -186.14465  -186.14465  -186.12875    -0.00000     0.00000     0.00000
  Local     -42.96013   -42.95963   -78.72530     0.00000    -0.00000     0.00000
  n-local    73.72773    78.61786    76.03279     2.61171     0.16222    -0.53590
  augment    45.21590    45.21555    45.27243     0.00000    -0.00000    -0.00000
  Kinetic   293.75093   302.80077   298.35311     5.78915     0.36125    -0.98190
  Fock        0.00000     0.00000     0.00000     0.00000     0.00000     0.00000
  -------------------------------------------------------------------------------------
  Total      -4.24019    -4.24019    -4.33198     0.00000    -0.00000    -0.00000
  in kB     -72.49978   -72.49978   -74.06925     0.00000    -0.00000    -0.00000
  external pressure =      -73.02 kB  Pullay stress =        0.00 kB


 VOLUME and BASIS-vectors are now :
 -----------------------------------------------------------------------------
  energy-cutoff  :      520.00
  volume of cell :       93.70
      direct lattice vectors                 reciprocal lattice vectors
     2.020538445 -3.499675246  0.000000000     0.247458791 -0.142870399  0.000000000
     2.020538445  3.499675246  0.000000000     0.247458791  0.142870399 -0.000000000
     0.000000000  0.000000000  6.625740717    -0.000000000  0.000000000  0.150926522

  length of vectors
     4.041076891  4.041076891  6.625740717     0.285740799  0.285740799  0.150926522


 FORCES acting on ions
    electron-ion (+dipol)            ewald-force                    non-local-force                 convergence-correction
 -----------------------------------------------------------------------------------------------
   -.122E-06 0.130E-05 -.446E+01   -.619E-14 0.455E-11 0.433E+01   -.886E-17 0.390E-17 0.134E+00   -.111E-12 -.845E-09 -.511E-04
   -.122E-06 -.130E-05 -.446E+01   0.356E-14 -.455E-11 0.433E+01   -.367E-17 0.361E-17 0.134E+00   0.150E-12 0.845E-09 -.511E-04
   -.147E-07 -.244E-06 0.423E+01   -.143E-14 0.421E-11 -.433E+01   0.846E-17 0.574E-16 0.957E-01   -.132E-13 0.129E-09 -.137E-03
   -.147E-07 0.244E-06 0.423E+01   0.976E-15 -.421E-11 -.433E+01   0.325E-16 -.152E-16 0.957E-01   0.115E-13 -.129E-09 -.137E-03
 -----------------------------------------------------------------------------------------------
   -.273E-06 0.131E-11 -.458E+00   -.309E-14 -.432E-15 -.178E-14   0.284E-16 0.496E-16 0.458E+00   0.368E-13 0.911E-13 -.376E-03


 POSITION                                       TOTAL-FORCE (eV/Angst)
 -----------------------------------------------------------------------------------
      2.02054      1.16656     -0.00212        -0.000000     -0.000000     -0.000297
      2.02054     -1.16656      3.31075         0.000000      0.000000     -0.000297
      2.02054      1.16656      2.48678         0.000000      0.000000      0.000297
      2.02054     -1.16656      5.79965        -0.000000     -0.000000      0.000297
 -----------------------------------------------------------------------------------
    total drift:                               -0.000000      0.000000      0.000238


--------------------------------------------------------------------------------------------------------



  FREE ENERGIE OF THE ION-ELECTRON SYSTEM (eV)
  ---------------------------------------------------
  free  energy   TOTEN  =       -13.35833413 eV

  energy  without entropy=      -13.35833413  energy(sigma->0) =      -13.35833413

 d Force = 0.9090873E-04[ 0.328E-05, 0.179E-03]  d Energy = 0.9207173E-04-0.116E-05
 d Force =-0.4484925E-01[-0.477E-01,-0.419E-01]  d Ewald  =-0.4485859E-01 0.933E-05


--------------------------------------------------------------------------------------------------------


    POTLOK:  cpu time      0.0964: real time      0.1214


--------------------------------------------------------------------------------------------------------


 Quasi-Newton relaxation of ions (Broydens 2nd method)
  g(Force)  = 0.170E-07   g(Stress)= 0.000E+00

 retain information from N=  1 steps
 eigenvalues of (default step * inverse Hessian matrix)
  average eigenvalue of G=   3.5960
 eigenvalue spectrum of G is  3.5960


--------------------------------------------------------------------------------------------------------


  
 reached required accuracy - stopping structural energy minimisation
 writing wavefunctions
     LOOP+:  cpu time     73.2046: real time     81.1786
    4ORBIT:  cpu time      0.0000: real time      0.0000

 total amount of memory used by VASP MPI-rank0    52177. kBytes
=======================================================================

   base      :      30000. kBytes
   nonl-proj :      15658. kBytes
   fftplans  :       1180. kBytes
   grid      :       3518. kBytes
   one-center:         62. kBytes
   wavefun   :       1759. kBytes

  
  
 General timing and accounting informations for this job:
 ========================================================
  
                  Total CPU time used (sec):      305.715
                            User time (sec):      199.726
                          System time (sec):      105.990
                         Elapsed time (sec):      334.227
  
                   Maximum memory used (kb):    77037568.
                   Average memory used (kb):          N/A
  
                          Minor page faults:        11979
                          Major page faults:          156
                 Voluntary context switches:           13
