 vasp.6.4.3 19Mar24 (build Jul  1 2025 23:09:51) complex                         
 executed on             LinuxGNU date 2025.12.31  15:22:48
 running   14 mpi-ranks, with   14 threads/rank, on    1 nodes
 distrk:  each k-point on   14 cores,    1 groups
 distr:  one band on NCORE=   1 cores,   14 groups


--------------------------------------------------------------------------------------------------------


 INCAR:
   GGA = PE
   PREC = Accurate
   ENCUT = 520
   KSPACING = 0.3
   ISMEAR = 0
   SIGMA = 0.03
   EDIFF = 1e-6
   NELM = 120
   NELMIN = 8
   ISIF = 2
   IBRION = 1
   EDIFFG = -1e-3
   NSW = 200

 POTCAR:    PAW_PBE Zn 06Sep2000                  
 POTCAR:    PAW_PBE S 06Sep2000                   
 POTCAR:    PAW_PBE Zn 06Sep2000                  
   SHA256 =  501fddbd8274dd8e9725d4f3de27861d7f1e553a7e18441bc79fed8f346e7f23 Zn/POTCAR             
   COPYR  = (c) Copyright 06Sep2000 Georg Kresse                                                    
   COPYR  = This file is part of the software VASP. Any use, copying, and all other rights are regul
   COPYR  = If you do not have a valid VASP license, you may not use, copy or distribute this file. 
   VRHFIN =Zn: d10 p2                                                                               
   LEXCH  = PE                                                                                      
   EATOM  =  1748.8345 eV,  128.5357 Ry                                                             
                                                                                                    
   TITEL  = PAW_PBE Zn 06Sep2000                                                                    
   LULTRA =        F    use ultrasoft PP ?                                                          
   IUNSCR =        1    unscreen: 0-lin 1-nonlin 2-no                                               
   RPACOR =    2.000    partial core radius                                                         
   POMASS =   65.390; ZVAL   =   12.000    mass and valenz                                          
   RCORE  =    2.300    outmost cutoff radius                                                       
   RWIGS  =    2.400; RWIGS  =    1.270    wigner-seitz radius (au A)                               
   ENMAX  =  276.723; ENMIN  =  207.542 eV                                                          
   RCLOC  =    1.828    cutoff for local pot                                                        
   LCOR   =        T    correct aug charges                                                         
   LPAW   =        T    paw PP                                                                      
   EAUG   =  575.892                                                                                
   DEXC   =    0.000                                                                                
   RMAX   =    2.347    core radius for proj-oper                                                   
   RAUG   =    1.300    factor for augmentation sphere                                              
   RDEP   =    2.324    radius for radial grids                                                     
   RDEPT  =    1.788    core radius for aug-charge                                                  
                                                                                                    
   Atomic configuration                                                                             
    9 entries                                                                                       
     n  l   j            E        occ.                                                              
     1  0  0.50     -9524.6913   2.0000                                                             
     2  0  0.50     -1158.1882   2.0000                                                             
     2  1  1.50     -1003.8506   6.0000                                                             
     3  0  0.50      -129.2194   2.0000                                                             
     3  1  1.50       -83.3890   6.0000                                                             
     3  2  2.50       -10.1410  10.0000                                                             
     4  0  0.50        -5.9785   2.0000                                                             
     4  1  0.50        -4.0817   0.0000                                                             
     4  3  2.50        -1.3606   0.0000                                                             
   Description                                                                                      
     l       E           TYP  RCUT    TYP  RCUT                                                     
     2    -10.1410010     23  2.300                                                                 
     2    -11.5015836     23  2.300                                                                 
     0     -5.9785163     23  2.300                                                                 
     0      1.1858015     23  2.300                                                                 
     1     -2.7211652     23  2.300                                                                 
     1     13.2444212     23  2.300                                                                 
  local pseudopotential read in
  partial core-charges read in
  partial kinetic energy density read in
  atomic valenz-charges read in
  non local Contribution for L=           2  read in
    real space projection operators read in
  non local Contribution for L=           2  read in
    real space projection operators read in
  non local Contribution for L=           0  read in
    real space projection operators read in
  non local Contribution for L=           0  read in
    real space projection operators read in
  non local Contribution for L=           1  read in
    real space projection operators read in
  non local Contribution for L=           1  read in
    real space projection operators read in
    PAW grid and wavefunctions read in

   number of l-projection  operators is LMAX  =           6
   number of lm-projection operators is LMMAX =          18

 POTCAR:    PAW_PBE S 06Sep2000                   
   SHA256 =  0fc7481fb0695f01bdc6462160264c5c84044ae9ec85a907d398b887a2bc3132 S/POTCAR              
   COPYR  = (c) Copyright 06Sep2000 Georg Kresse                                                    
   COPYR  = This file is part of the software VASP. Any use, copying, and all other rights are regul
   COPYR  = If you do not have a valid VASP license, you may not use, copy or distribute this file. 
   VRHFIN =S : s2p4                                                                                 
   LEXCH  = PE                                                                                      
   EATOM  =   276.8230 eV,   20.3459 Ry                                                             
                                                                                                    
   TITEL  = PAW_PBE S 06Sep2000                                                                     
   LULTRA =        F    use ultrasoft PP ?                                                          
   IUNSCR =        1    unscreen: 0-lin 1-nonlin 2-no                                               
   RPACOR =    1.500    partial core radius                                                         
   POMASS =   32.066; ZVAL   =    6.000    mass and valenz                                          
   RCORE  =    1.900    outmost cutoff radius                                                       
   RWIGS  =    2.200; RWIGS  =    1.164    wigner-seitz radius (au A)                               
   ENMAX  =  258.689; ENMIN  =  194.016 eV                                                          
   ICORE  =        2    local potential                                                             
   LCOR   =        T    correct aug charges                                                         
   LPAW   =        T    paw PP                                                                      
   EAUG   =  335.092                                                                                
   DEXC   =    0.000                                                                                
   RMAX   =    1.942    core radius for proj-oper                                                   
   RAUG   =    1.300    factor for augmentation sphere                                              
   RDEP   =    1.954    radius for radial grids                                                     
   RDEPT  =    1.744    core radius for aug-charge                                                  
                                                                                                    
   Atomic configuration                                                                             
    6 entries                                                                                       
     n  l   j            E        occ.                                                              
     1  0  0.50     -2405.8406   2.0000                                                             
     2  0  0.50      -211.7007   2.0000                                                             
     2  1  1.50      -156.4958   6.0000                                                             
     3  0  0.50       -17.2562   2.0000                                                             
     3  1  0.50        -7.0085   4.0000                                                             
     3  2  1.50        -6.8029   0.0000                                                             
   Description                                                                                      
     l       E           TYP  RCUT    TYP  RCUT                                                     
     0    -17.2561641     23  1.900                                                                 
     0    -15.8743224     23  1.900                                                                 
     1     -7.0085400     23  1.900                                                                 
     1     -2.7779785     23  1.900                                                                 
     2     -6.8029130     23  1.900                                                                 
  local pseudopotential read in
  partial core-charges read in
  partial kinetic energy density read in
  atomic valenz-charges read in
  non local Contribution for L=           0  read in
    real space projection operators read in
  non local Contribution for L=           0  read in
    real space projection operators read in
  non local Contribution for L=           1  read in
    real space projection operators read in
  non local Contribution for L=           1  read in
    real space projection operators read in
    PAW grid and wavefunctions read in

   number of l-projection  operators is LMAX  =           4
   number of lm-projection operators is LMMAX =           8

  PAW_PBE Zn 06Sep2000                  :
 energy of atom  1       EATOM=-1748.8345
 kinetic energy error for atom=    0.0029 (will be added to EATOM!!)
  PAW_PBE S 06Sep2000                   :
 energy of atom  2       EATOM= -276.8230
 kinetic energy error for atom=    0.0016 (will be added to EATOM!!)


 POSCAR: Zn S
  positions in cartesian coordinates
  velocities in cartesian coordinates


 exchange-correlation table for PE
   RHO(1)=    0.500       N(1)  =     2000
   RHO(2)=  100.500       N(2)  =     4000



--------------------------------------------------------------------------------------------------------


 ion  position               nearest neighbor table
   1  0.333  0.667  0.000-   4 2.31   4 2.31   4 2.31   3 2.32
   2  0.667  0.333  0.500-   3 2.31   3 2.31   3 2.31   4 2.32
   3  0.333  0.667  0.375-   2 2.31   2 2.31   2 2.31   1 2.32
   4  0.667  0.333  0.875-   1 2.31   1 2.31   1 2.31   2 2.32

  LATTYP: Found a hexagonal cell.
 ALAT       =     3.7716717648
 C/A-ratio  =     1.6395977843
  
  Lattice vectors:
  
 A1 = (   1.8858358824,  -3.2663635630,  -0.0000000000)
 A2 = (   1.8858358824,   3.2663635630,   0.0000000000)
 A3 = (   0.0000000000,   0.0000000000,   6.1840246688)


Analysis of symmetry for initial positions (statically):
=====================================================================
 Subroutine PRICEL returns:
 Original cell was already a primitive cell.
 

 Routine SETGRP: Setting up the symmetry group for a 
 hexagonal supercell.


 Subroutine GETGRP returns: Found 12 space group operations
 (whereof  6 operations were pure point group operations)
 out of a pool of 24 trial point group operations.


The static configuration has the point symmetry C_3v.
 The point group associated with its full space group is C_6v.


Analysis of symmetry for dynamics (positions and initial velocities):
=====================================================================
 Subroutine PRICEL returns:
 Original cell was already a primitive cell.
 

 Routine SETGRP: Setting up the symmetry group for a 
 hexagonal supercell.


 Subroutine GETGRP returns: Found 12 space group operations
 (whereof  6 operations were pure point group operations)
 out of a pool of 24 trial point group operations.


The dynamic configuration has the point symmetry C_3v.
 The point group associated with its full space group is C_6v.


 Subroutine INISYM returns: Found 12 space group operations
 (whereof  6 operations are pure point group operations),
 and found     1 'primitive' translations


----------------------------------------------------------------------------------------

                                     Primitive cell                                     

  volume of cell :      76.1850

  direct lattice vectors                    reciprocal lattice vectors
     1.885835882 -3.266363563 -0.000000000     0.265134418 -0.153075428  0.000000000
     1.885835882  3.266363563  0.000000000     0.265134418  0.153075428 -0.000000000
     0.000000000  0.000000000  6.184024669     0.000000000 -0.000000000  0.161706988

  length of vectors
     3.771671765  3.771671765  6.184024669     0.306150856  0.306150856  0.161706988

  position of ions in fractional coordinates (direct lattice)
     0.333333333  0.666666667  0.000260133
     0.666666667  0.333333333  0.500260133
     0.333333333  0.666666667  0.374739867
     0.666666667  0.333333333  0.874739867

  ion indices of the primitive-cell ions
   primitive index   ion index
                 1           1
                 2           2
                 3           3
                 4           4

----------------------------------------------------------------------------------------



 KPOINTS: Automatic kpoint scheme                 

Automatic generation of k-mesh.
 Grid dimensions read from file:
 generate k-points for:    6    6    4

 Generating k-lattice:

  Cartesian coordinates                     Fractional coordinates (reciprocal lattice)
     0.044189070 -0.025512571  0.000000000     0.166666667  0.000000000  0.000000000
     0.044189070  0.025512571 -0.000000000     0.000000000  0.166666667  0.000000000
     0.000000000 -0.000000000  0.040426747     0.000000000  0.000000000  0.250000000

  Length of vectors
     0.051025143  0.051025143  0.040426747

  Shift w.r.t. Gamma in fractional coordinates (k-lattice)
     0.000000000  0.000000000  0.000000000

 
 Subroutine IBZKPT returns following result:
 ===========================================
 
 Found     21 irreducible k-points:
 
 Following reciprocal coordinates:
            Coordinates               Weight
  0.000000  0.000000  0.000000      1.000000
  0.166667  0.000000  0.000000      6.000000
  0.333333  0.000000  0.000000      6.000000
  0.500000  0.000000  0.000000      3.000000
  0.166667  0.166667  0.000000      6.000000
  0.333333  0.166667  0.000000     12.000000
  0.333333  0.333333  0.000000      2.000000
  0.000000  0.000000  0.250000      2.000000
  0.166667  0.000000  0.250000     12.000000
  0.333333  0.000000  0.250000     12.000000
  0.500000  0.000000  0.250000      6.000000
  0.166667  0.166667  0.250000     12.000000
  0.333333  0.166667  0.250000     24.000000
  0.333333  0.333333  0.250000      4.000000
  0.000000  0.000000  0.500000      1.000000
  0.166667  0.000000  0.500000      6.000000
  0.333333  0.000000  0.500000      6.000000
  0.500000  0.000000  0.500000      3.000000
  0.166667  0.166667  0.500000      6.000000
  0.333333  0.166667  0.500000     12.000000
  0.333333  0.333333  0.500000      2.000000
 
 Following cartesian coordinates:
            Coordinates               Weight
  0.000000  0.000000  0.000000      1.000000
  0.044189 -0.025513  0.000000      6.000000
  0.088378 -0.051025  0.000000      6.000000
  0.132567 -0.076538  0.000000      3.000000
  0.088378  0.000000  0.000000      6.000000
  0.132567 -0.025513  0.000000     12.000000
  0.176756  0.000000  0.000000      2.000000
  0.000000  0.000000  0.040427      2.000000
  0.044189 -0.025513  0.040427     12.000000
  0.088378 -0.051025  0.040427     12.000000
  0.132567 -0.076538  0.040427      6.000000
  0.088378  0.000000  0.040427     12.000000
  0.132567 -0.025513  0.040427     24.000000
  0.176756  0.000000  0.040427      4.000000
  0.000000  0.000000  0.080853      1.000000
  0.044189 -0.025513  0.080853      6.000000
  0.088378 -0.051025  0.080853      6.000000
  0.132567 -0.076538  0.080853      3.000000
  0.088378  0.000000  0.080853      6.000000
  0.132567 -0.025513  0.080853     12.000000
  0.176756  0.000000  0.080853      2.000000
 


--------------------------------------------------------------------------------------------------------




 Dimension of arrays:
   k-points           NKPTS =     21   k-points in BZ     NKDIM =     21   number of bands    NBANDS=     28
   number of dos      NEDOS =    301   number of ions     NIONS =      4
   non local maximal  LDIM  =      6   non local SUM 2l+1 LMDIM =     18
   total plane-waves  NPLWV =  37632
   max r-space proj   IRMAX =      1   max aug-charges    IRDMAX=  15760
   dimension x,y,z NGX =    28 NGY =   28 NGZ =   48
   dimension x,y,z NGXF=    56 NGYF=   56 NGZF=   96
   support grid    NGXF=    56 NGYF=   56 NGZF=   96
   ions per type =               2   2
   NGX,Y,Z   is equivalent  to a cutoff of  12.34, 12.34, 12.90 a.u.
   NGXF,Y,Z  is equivalent  to a cutoff of  24.68, 24.68, 25.81 a.u.

 SYSTEM =  unknown system                          
 POSCAR =  Zn S                                    

 Startparameter for this run:
   NWRITE =      2    write-flag & timer
   PREC   = accura    normal or accurate (medium, high low for compatibility)
   ISTART =      0    job   : 0-new  1-cont  2-samecut
   ICHARG =      2    charge: 1-file 2-atom 10-const
   ISPIN  =      1    spin polarized calculation?
   LNONCOLLINEAR =      F non collinear calculations
   LSORBIT =      F    spin-orbit coupling
   INIWAV =      1    electr: 0-lowe 1-rand  2-diag
   LASPH  =      F    aspherical Exc in radial PAW
 Electronic Relaxation 1
   ENCUT  =  520.0 eV  38.22 Ry    6.18 a.u.   7.01  7.01 11.50*2*pi/ulx,y,z
   ENINI  =  520.0     initial cutoff
   ENAUG  =  575.9 eV  augmentation charge cutoff
   NELM   =    120;   NELMIN=  8; NELMDL= -5     # of ELM steps 
   EDIFF  = 0.1E-05   stopping-criterion for ELM
   LREAL  =      F    real-space projection
   NLSPLINE    = F    spline interpolate recip. space projectors
   LCOMPAT=      F    compatible to vasp.4.4
   GGA_COMPAT  = T    GGA compatible to vasp.4.4-vasp.4.6
   LMAXPAW     = -100 max onsite density
   LMAXMIX     =    2 max onsite mixed and CHGCAR
   VOSKOWN=      0    Vosko Wilk Nusair interpolation
   ROPT   =    0.00000   0.00000
 Ionic relaxation
   EDIFFG = -.1E-02   stopping-criterion for IOM
   NSW    =    200    number of steps for IOM
   NBLOCK =      1;   KBLOCK =    200    inner block; outer block 
   IBRION =      1    ionic relax: 0-MD 1-quasi-New 2-CG
   NFREE  =      0    steps in history (QN), initial steepest desc. (CG)
   ISIF   =      2    stress and relaxation
   IWAVPR =     11    prediction:  0-non 1-charg 2-wave 3-comb
   ISYM   =      2    0-nonsym 1-usesym 2-fastsym
   LCORR  =      T    Harris-Foulkes like correction to forces

   POTIM  = 0.5000    time-step for ionic-motion
   TEIN   =    0.0    initial temperature
   TEBEG  =    0.0;   TEEND  =   0.0 temperature during run
   SMASS  =  -3.00    Nose mass-parameter (am)
   estimated Nose-frequenzy (Omega)   =  0.10E-29 period in steps = 0.13E+47 mass=  -0.325E-27a.u.
   SCALEE = 1.0000    scale energy and forces
   NPACO  =    256;   APACO  = 10.0  distance and # of slots for P.C.
   PSTRESS=    0.0 pullay stress

  Mass of Ions in am
   POMASS =  65.39 32.07
  Ionic Valenz
   ZVAL   =  12.00  6.00
  Atomic Wigner-Seitz radii
   RWIGS  =  -1.00 -1.00
  virtual crystal weights 
   VCA    =   1.00  1.00
   NELECT =      36.0000    total number of electrons
   NUPDOWN=      -1.0000    fix difference up-down

 DOS related values:
   EMIN   =  10.00;   EMAX   =-10.00  energy-range for DOS
   EFERMI =   0.00;   METHOD = LEGACY      
   ISMEAR =     0;   SIGMA  =   0.03  broadening in eV -4-tet -1-fermi 0-gaus

 Electronic relaxation 2 (details)
   IALGO  =     38    algorithm
   LDIAG  =      T    sub-space diagonalisation (order eigenvalues)
   LSUBROT=      F    optimize rotation matrix (better conditioning)
   TURBO    =      0    0=normal 1=particle mesh
   IRESTART =      0    0=no restart 2=restart with 2 vectors
   NREBOOT  =      0    no. of reboots
   NMIN     =      0    reboot dimension
   EREF     =   0.00    reference energy to select bands
   IMIX   =      4    mixing-type and parameters
     AMIX     =   0.40;   BMIX     =  1.00
     AMIX_MAG =   1.60;   BMIX_MAG =  1.00
     AMIN     =   0.10
     WC   =   100.;   INIMIX=   1;  MIXPRE=   1;  MAXMIX= -45

 Intra band minimization:
   WEIMIN = 0.0010     energy-eigenvalue tresh-hold
   EBREAK =  0.89E-08  absolut break condition
   DEPER  =   0.30     relativ break condition  

   TIME   =   0.40     timestep for ELM

  volume/ion in A,a.u.               =      19.05       128.53
  Fermi-wavevector in a.u.,A,eV,Ry     =   1.275124  2.409635 22.122277  1.625941
  Thomas-Fermi vector in A             =   2.407854

 Write flags
   LWAVE        =      T    write WAVECAR
   LDOWNSAMPLE  =      F    k-point downsampling of WAVECAR
   LCHARG       =      T    write CHGCAR
   LVTOT        =      F    write LOCPOT, total local potential
   LVHAR        =      F    write LOCPOT, Hartree potential only
   WRT_POTENTIAL= false  ! write potential to hdf5 file
   LELF         =      F    write electronic localiz. function (ELF)
   LORBIT       =      0    0 simple, 1 ext, 2 COOP (PROOUT), +10 PAW based schemes


 Dipole corrections
   LMONO      =      F    monopole corrections only (constant potential shift)
   LDIPOL     =      F    correct potential (dipole corrections)
   IDIPOL     =      0    1-x, 2-y, 3-z, 4-all directions 
   EPSILON    =  1.0000000 bulk dielectric constant
   LVACPOTAV  =      F  vacuum potentials using an averaging scheme for the charge density
   VACPOTFLAT =  0.1000000 required flatness to determine vacuum potential
 Exchange correlation treatment:
   GGA     = PE    functional components
   XC_C    = 1    coefficients multiplying the functional components
   LIBXC   =     F    Libxc                    
   VOSKOWN =     0    Vosko Wilk Nusair interpolation
   LHFCALC =     F    Hartree Fock is set to
   LHFONE  =     F    Hartree Fock one center treatment
   AEXX    =    0.0000 exact exchange contribution

 Parameters of functionals:
   PE:
     No parameter

 Van der Waals corrections
   IVDW    =     0    specifies the selected vdW correction

 Linear response parameters
   LEPSILON=     F    determine dielectric tensor
   LRPA    =     F    only Hartree local field effects (RPA)
   LNABLA  =     F    use nabla operator in PAW spheres
   LVEL    =     F    velocity operator in full k-point grid
   CSHIFT  =0.1000    complex shift for real part using Kramers Kronig
   OMEGAMAX=  -1.0    maximum frequency
   DEG_THRESHOLD= 0.2000000E-02 threshold for treating states as degnerate
   RTIME   =   -0.100 relaxation time in fs
  (WPLASMAI=    0.000 imaginary part of plasma frequency in eV, 0.658/RTIME)
   DFIELD  = 0.0000000 0.0000000 0.0000000 field for delta impulse in time

  Optional k-point grid parameters
   LKPOINTS_OPT  =     F    use optional k-point grid
   KPOINTS_OPT_MODE=     1    mode for optional k-point grid

 Orbital magnetization related:
   ORBITALMAG=     F  switch on orbital magnetization
   LCHIMAG   =     F  perturbation theory with respect to B field
   DQ        =  0.001000  dq finite difference perturbation B field
   LLRAUG    =     F  two centre corrections for induced B field
   LBONE     =     F  B-component reconstruction in AE one-centre
   LVGVCALC  =     T  calculate vGv susceptibility
   LVGVAPPL  =     F  apply vGv susceptibility instead of pGv for G=0

 Random number generation:
   RANDOM_GENERATOR = DEFAULT
   PCG_SEED         = not used


--------------------------------------------------------------------------------------------------------


 quasi-Newton-method for relaxation of ions
 charge density and potential will be updated during run
 non-spin polarized calculation
 Variant of blocked Davidson
 Davidson routine will perform the subspace rotation
 perform sub-space diagonalisation
    after iterative eigenvector-optimisation
 modified Broyden-mixing scheme, WC =      100.0
 initial mixing is a Kerker type mixing with AMIX =  0.4000 and BMIX =      1.0000
 Hartree-type preconditioning will be used
 using additional bands           10
 reciprocal scheme for non local part
 use partial core corrections
 calculate Harris-corrections to forces   (improved forces if not selfconsistent)
 use gradient corrections 
 use of overlap-Matrix (Vanderbilt PP)
 Gauss-broadening in eV      SIGMA  =   0.03


--------------------------------------------------------------------------------------------------------


  energy-cutoff  :      520.00
  volume of cell :       76.19
      direct lattice vectors                 reciprocal lattice vectors
     1.885835882 -3.266363563 -0.000000000     0.265134418 -0.153075428  0.000000000
     1.885835882  3.266363563  0.000000000     0.265134418  0.153075428 -0.000000000
     0.000000000  0.000000000  6.184024669     0.000000000 -0.000000000  0.161706988

  length of vectors
     3.771671765  3.771671765  6.184024669     0.306150856  0.306150856  0.161706988



 k-points in units of 2pi/SCALE and weight: Automatic kpoint scheme                 
   0.00000000 -0.00000000  0.00000000       0.007
   0.04418907 -0.02551257  0.00000000       0.042
   0.08837814 -0.05102514  0.00000000       0.042
   0.13256721 -0.07653771  0.00000000       0.021
   0.08837814 -0.00000000  0.00000000       0.042
   0.13256721 -0.02551257  0.00000000       0.083
   0.17675628 -0.00000000  0.00000000       0.014
   0.00000000 -0.00000000  0.04042675       0.014
   0.04418907 -0.02551257  0.04042675       0.083
   0.08837814 -0.05102514  0.04042675       0.083
   0.13256721 -0.07653771  0.04042675       0.042
   0.08837814 -0.00000000  0.04042675       0.083
   0.13256721 -0.02551257  0.04042675       0.167
   0.17675628 -0.00000000  0.04042675       0.028
   0.00000000 -0.00000000  0.08085349       0.007
   0.04418907 -0.02551257  0.08085349       0.042
   0.08837814 -0.05102514  0.08085349       0.042
   0.13256721 -0.07653771  0.08085349       0.021
   0.08837814 -0.00000000  0.08085349       0.042
   0.13256721 -0.02551257  0.08085349       0.083
   0.17675628 -0.00000000  0.08085349       0.014

 k-points in reciprocal lattice and weights: Automatic kpoint scheme                 
   0.00000000  0.00000000  0.00000000       0.007
   0.16666667  0.00000000  0.00000000       0.042
   0.33333333  0.00000000  0.00000000       0.042
   0.50000000  0.00000000  0.00000000       0.021
   0.16666667  0.16666667  0.00000000       0.042
   0.33333333  0.16666667  0.00000000       0.083
   0.33333333  0.33333333  0.00000000       0.014
   0.00000000  0.00000000  0.25000000       0.014
   0.16666667  0.00000000  0.25000000       0.083
   0.33333333  0.00000000  0.25000000       0.083
   0.50000000  0.00000000  0.25000000       0.042
   0.16666667  0.16666667  0.25000000       0.083
   0.33333333  0.16666667  0.25000000       0.167
   0.33333333  0.33333333  0.25000000       0.028
   0.00000000  0.00000000  0.50000000       0.007
   0.16666667  0.00000000  0.50000000       0.042
   0.33333333  0.00000000  0.50000000       0.042
   0.50000000  0.00000000  0.50000000       0.021
   0.16666667  0.16666667  0.50000000       0.042
   0.33333333  0.16666667  0.50000000       0.083
   0.33333333  0.33333333  0.50000000       0.014

 position of ions in fractional coordinates (direct lattice) 
   0.33333333  0.66666667  0.00026013
   0.66666667  0.33333333  0.50026013
   0.33333333  0.66666667  0.37473987
   0.66666667  0.33333333  0.87473987

 position of ions in cartesian coordinates  (Angst):
   1.88583588  1.08878785  0.00160867
   1.88583588 -1.08878785  3.09362101
   1.88583588  1.08878785  2.31740058
   1.88583588 -1.08878785  5.40941291



--------------------------------------------------------------------------------------------------------


 k-point     1 :   0.0000 0.0000 0.0000  plane waves:    2021
 k-point     2 :   0.1667 0.0000 0.0000  plane waves:    2048
 k-point     3 :   0.3333 0.0000 0.0000  plane waves:    2054
 k-point     4 :   0.5000 0.0000 0.0000  plane waves:    2044
 k-point     5 :   0.1667 0.1667 0.0000  plane waves:    2063
 k-point     6 :   0.3333 0.1667 0.0000  plane waves:    2059
 k-point     7 :   0.3333 0.3333 0.0000  plane waves:    2055
 k-point     8 :   0.0000 0.0000 0.2500  plane waves:    2027
 k-point     9 :   0.1667 0.0000 0.2500  plane waves:    2037
 k-point    10 :   0.3333 0.0000 0.2500  plane waves:    2059
 k-point    11 :   0.5000 0.0000 0.2500  plane waves:    2042
 k-point    12 :   0.1667 0.1667 0.2500  plane waves:    2049
 k-point    13 :   0.3333 0.1667 0.2500  plane waves:    2060
 k-point    14 :   0.3333 0.3333 0.2500  plane waves:    2058
 k-point    15 :   0.0000 0.0000 0.5000  plane waves:    2038
 k-point    16 :   0.1667 0.0000 0.5000  plane waves:    2008
 k-point    17 :   0.3333 0.0000 0.5000  plane waves:    2054
 k-point    18 :   0.5000 0.0000 0.5000  plane waves:    2056
 k-point    19 :   0.1667 0.1667 0.5000  plane waves:    2056
 k-point    20 :   0.3333 0.1667 0.5000  plane waves:    2058
 k-point    21 :   0.3333 0.3333 0.5000  plane waves:    2046

 maximum and minimum number of plane-waves per node :      2063     2008

 maximum number of plane-waves:      2063
 maximum index in each direction: 
   IXMAX=    6   IYMAX=    7   IZMAX=   11
   IXMIN=   -7   IYMIN=   -7   IZMIN=  -11


 serial   3D FFT for wavefunctions
 parallel 3D FFT for charge:
    minimum data exchange during FFTs selected (reduces bandwidth)


 total amount of memory used by VASP MPI-rank0    47789. kBytes
=======================================================================

   base      :      30000. kBytes
   nonl-proj :      12664. kBytes
   fftplans  :        894. kBytes
   grid      :       2739. kBytes
   one-center:         62. kBytes
   wavefun   :       1430. kBytes

     INWAV:  cpu time      0.0000: real time      0.0000
 Broyden mixing: mesh for mixing (old mesh)
   NGX = 13   NGY = 13   NGZ = 23
  (NGX  = 56   NGY  = 56   NGZ  = 96)
  gives a total of   3887 points

 initial charge density was supplied:
 charge density of overlapping atoms calculated
 number of electron      36.0000000 magnetization 
 keeping initial charge density in first step


--------------------------------------------------------------------------------------------------------


 Maximum index for augmentation-charges         1088 (set IRDMAX)


--------------------------------------------------------------------------------------------------------


 First call to EWALD:  gamma=   0.418
 Maximum number of real-space cells 3x 3x 2
 Maximum number of reciprocal cells 2x 2x 4

    FEWALD:  cpu time      0.1419: real time      0.1860


--------------------------------------- Ionic step        1  -------------------------------------------




--------------------------------------- Iteration      1(   1)  ---------------------------------------


    POTLOK:  cpu time      0.1473: real time      0.1510
    SETDIJ:  cpu time      0.0142: real time      0.0140
     EDDAV:  cpu time      6.4906: real time      6.5527
       DOS:  cpu time      0.0002: real time      0.0002
    --------------------------------------------
      LOOP:  cpu time      6.6523: real time      6.7179

 eigenvalue-minimisations  :  1176
 total energy-change (2. order) : 0.1821406E+03  (-0.1798255E+04)
 number of electron      36.0000000 magnetization 
 augmentation part       36.0000000 magnetization 

 Free energy of the ion-electron system (eV)
  ---------------------------------------------------
  alpha Z        PSCENC =       148.42799685
  Ewald energy   TEWEN  =     -2533.30939684
  -Hartree energ DENC   =     -1367.29238614
  -exchange      EXHF   =         0.00000000
  -V(xc)+E(xc)   XCENC  =       139.02422896
  PAW double counting   =      3345.42656771    -3694.17617221
  entropy T*S    EENTRO =        -0.00142979
  eigenvalues    EBANDS =        92.73520425
  atomic energy  EATOM  =      4051.30602026
  Solvation  Ediel_sol  =         0.00000000
  ---------------------------------------------------
  free energy    TOTEN  =       182.14063306 eV

  energy without entropy =      182.14206285  energy(sigma->0) =      182.14134795


--------------------------------------------------------------------------------------------------------




--------------------------------------- Iteration      1(   2)  ---------------------------------------


     EDDAV:  cpu time      8.8033: real time      9.0598
       DOS:  cpu time      0.0001: real time      0.0002
    --------------------------------------------
      LOOP:  cpu time      8.8034: real time      9.0600

 eigenvalue-minimisations  :  1372
 total energy-change (2. order) :-0.1851233E+03  (-0.1784104E+03)
 number of electron      36.0000000 magnetization 
 augmentation part       36.0000000 magnetization 

 Free energy of the ion-electron system (eV)
  ---------------------------------------------------
  alpha Z        PSCENC =       148.42799685
  Ewald energy   TEWEN  =     -2533.30939684
  -Hartree energ DENC   =     -1367.29238614
  -exchange      EXHF   =         0.00000000
  -V(xc)+E(xc)   XCENC  =       139.02422896
  PAW double counting   =      3345.42656771    -3694.17617221
  entropy T*S    EENTRO =        -0.00000000
  eigenvalues    EBANDS =       -92.38952901
  atomic energy  EATOM  =      4051.30602026
  Solvation  Ediel_sol  =         0.00000000
  ---------------------------------------------------
  free energy    TOTEN  =        -2.98267041 eV

  energy without entropy =       -2.98267041  energy(sigma->0) =       -2.98267041


--------------------------------------------------------------------------------------------------------




--------------------------------------- Iteration      1(   3)  ---------------------------------------


     EDDAV:  cpu time     11.3582: real time     11.4940
       DOS:  cpu time      0.0001: real time      0.0001
    --------------------------------------------
      LOOP:  cpu time     11.3584: real time     11.4941

 eigenvalue-minimisations  :  1484
 total energy-change (2. order) :-0.1138097E+02  (-0.1135158E+02)
 number of electron      36.0000000 magnetization 
 augmentation part       36.0000000 magnetization 

 Free energy of the ion-electron system (eV)
  ---------------------------------------------------
  alpha Z        PSCENC =       148.42799685
  Ewald energy   TEWEN  =     -2533.30939684
  -Hartree energ DENC   =     -1367.29238614
  -exchange      EXHF   =         0.00000000
  -V(xc)+E(xc)   XCENC  =       139.02422896
  PAW double counting   =      3345.42656771    -3694.17617221
  entropy T*S    EENTRO =        -0.00000000
  eigenvalues    EBANDS =      -103.77050293
  atomic energy  EATOM  =      4051.30602026
  Solvation  Ediel_sol  =         0.00000000
  ---------------------------------------------------
  free energy    TOTEN  =       -14.36364433 eV

  energy without entropy =      -14.36364433  energy(sigma->0) =      -14.36364433


--------------------------------------------------------------------------------------------------------




--------------------------------------- Iteration      1(   4)  ---------------------------------------


     EDDAV:  cpu time     11.1269: real time     10.8629
       DOS:  cpu time      0.0001: real time      0.0001
    --------------------------------------------
      LOOP:  cpu time     11.1270: real time     10.8631

 eigenvalue-minimisations  :  1442
 total energy-change (2. order) :-0.1193973E+00  (-0.1193819E+00)
 number of electron      36.0000000 magnetization 
 augmentation part       36.0000000 magnetization 

 Free energy of the ion-electron system (eV)
  ---------------------------------------------------
  alpha Z        PSCENC =       148.42799685
  Ewald energy   TEWEN  =     -2533.30939684
  -Hartree energ DENC   =     -1367.29238614
  -exchange      EXHF   =         0.00000000
  -V(xc)+E(xc)   XCENC  =       139.02422896
  PAW double counting   =      3345.42656771    -3694.17617221
  entropy T*S    EENTRO =        -0.00000000
  eigenvalues    EBANDS =      -103.88990024
  atomic energy  EATOM  =      4051.30602026
  Solvation  Ediel_sol  =         0.00000000
  ---------------------------------------------------
  free energy    TOTEN  =       -14.48304163 eV

  energy without entropy =      -14.48304163  energy(sigma->0) =      -14.48304163


--------------------------------------------------------------------------------------------------------




--------------------------------------- Iteration      1(   5)  ---------------------------------------


     EDDAV:  cpu time     11.7798: real time     11.7176
       DOS:  cpu time      0.0001: real time      0.0001
    CHARGE:  cpu time      0.2548: real time      0.2010
    MIXING:  cpu time      0.0065: real time      0.0092
    --------------------------------------------
      LOOP:  cpu time     12.0412: real time     11.9279

 eigenvalue-minimisations  :  1526
 total energy-change (2. order) :-0.1879444E-02  (-0.1879416E-02)
 number of electron      35.9999969 magnetization 
 augmentation part       14.2204691 magnetization 

 Broyden mixing:
  rms(total) = 0.10393E+01    rms(broyden)= 0.10393E+01
  rms(prec ) = 0.12813E+01
  weight for this iteration     100.00

 Free energy of the ion-electron system (eV)
  ---------------------------------------------------
  alpha Z        PSCENC =       148.42799685
  Ewald energy   TEWEN  =     -2533.30939684
  -Hartree energ DENC   =     -1367.29238614
  -exchange      EXHF   =         0.00000000
  -V(xc)+E(xc)   XCENC  =       139.02422896
  PAW double counting   =      3345.42656771    -3694.17617221
  entropy T*S    EENTRO =        -0.00000000
  eigenvalues    EBANDS =      -103.89177968
  atomic energy  EATOM  =      4051.30602026
  Solvation  Ediel_sol  =         0.00000000
  ---------------------------------------------------
  free energy    TOTEN  =       -14.48492108 eV

  energy without entropy =      -14.48492108  energy(sigma->0) =      -14.48492108


--------------------------------------------------------------------------------------------------------




--------------------------------------- Iteration      1(   6)  ---------------------------------------


    POTLOK:  cpu time      0.0965: real time      0.1000
    SETDIJ:  cpu time      0.0047: real time      0.0050
     EDDAV:  cpu time     11.4936: real time     11.7380
       DOS:  cpu time      0.0001: real time      0.0001
    CHARGE:  cpu time      0.2322: real time      0.2066
    MIXING:  cpu time      0.0041: real time      0.0054
    --------------------------------------------
      LOOP:  cpu time     11.8311: real time     12.0551

 eigenvalue-minimisations  :  1582
 total energy-change (2. order) : 0.8303962E+00  (-0.1805285E+00)
 number of electron      35.9999968 magnetization 
 augmentation part       14.4577192 magnetization 

 Broyden mixing:
  rms(total) = 0.79987E+00    rms(broyden)= 0.79987E+00
  rms(prec ) = 0.84006E+00
  weight for this iteration     100.00

 eigenvalues of (default mixing * dielectric matrix)
  average eigenvalue GAMMA=   2.1728
  2.1728

 Free energy of the ion-electron system (eV)
  ---------------------------------------------------
  alpha Z        PSCENC =       148.42799685
  Ewald energy   TEWEN  =     -2533.30939684
  -Hartree energ DENC   =     -1353.57301695
  -exchange      EXHF   =         0.00000000
  -V(xc)+E(xc)   XCENC  =       138.96058963
  PAW double counting   =      3639.82274956    -3983.83077464
  entropy T*S    EENTRO =        -0.00000000
  eigenvalues    EBANDS =      -121.45869278
  atomic energy  EATOM  =      4051.30602026
  Solvation  Ediel_sol  =         0.00000000
  ---------------------------------------------------
  free energy    TOTEN  =       -13.65452490 eV

  energy without entropy =      -13.65452490  energy(sigma->0) =      -13.65452490


--------------------------------------------------------------------------------------------------------




--------------------------------------- Iteration      1(   7)  ---------------------------------------


    POTLOK:  cpu time      0.0802: real time      0.0932
    SETDIJ:  cpu time      0.0050: real time      0.0036
     EDDAV:  cpu time      7.3418: real time      7.1545
       DOS:  cpu time      0.0001: real time      0.0001
    CHARGE:  cpu time      0.2248: real time      0.2012
    MIXING:  cpu time      0.0076: real time      0.0069
    --------------------------------------------
      LOOP:  cpu time      7.6595: real time      7.4596

 eigenvalue-minimisations  :  1218
 total energy-change (2. order) : 0.3289076E-01  (-0.8470086E-01)
 number of electron      35.9999968 magnetization 
 augmentation part       14.4271780 magnetization 

 Broyden mixing:
  rms(total) = 0.35704E+00    rms(broyden)= 0.35704E+00
  rms(prec ) = 0.36892E+00
  weight for this iteration     100.00

 eigenvalues of (default mixing * dielectric matrix)
  average eigenvalue GAMMA=   1.7456
  0.9090  2.5823

 Free energy of the ion-electron system (eV)
  ---------------------------------------------------
  alpha Z        PSCENC =       148.42799685
  Ewald energy   TEWEN  =     -2533.30939684
  -Hartree energ DENC   =     -1356.35929648
  -exchange      EXHF   =         0.00000000
  -V(xc)+E(xc)   XCENC  =       139.40985891
  PAW double counting   =      4069.55539273    -4418.99956035
  entropy T*S    EENTRO =        -0.00000000
  eigenvalues    EBANDS =      -113.65264923
  atomic energy  EATOM  =      4051.30602026
  Solvation  Ediel_sol  =         0.00000000
  ---------------------------------------------------
  free energy    TOTEN  =       -13.62163414 eV

  energy without entropy =      -13.62163414  energy(sigma->0) =      -13.62163414


--------------------------------------------------------------------------------------------------------




--------------------------------------- Iteration      1(   8)  ---------------------------------------


    POTLOK:  cpu time      0.1176: real time      0.0990
    SETDIJ:  cpu time      0.0074: real time      0.0075
     EDDAV:  cpu time     11.0313: real time     11.1141
       DOS:  cpu time      0.0002: real time      0.0002
    CHARGE:  cpu time      0.2166: real time      0.2060
    MIXING:  cpu time      0.0037: real time      0.0056
    --------------------------------------------
      LOOP:  cpu time     11.3768: real time     11.4324

 eigenvalue-minimisations  :  1442
 total energy-change (2. order) : 0.1444310E-02  (-0.1572165E-02)
 number of electron      35.9999968 magnetization 
 augmentation part       14.4293798 magnetization 

 Broyden mixing:
  rms(total) = 0.76509E-01    rms(broyden)= 0.76509E-01
  rms(prec ) = 0.83373E-01
  weight for this iteration     100.00

 eigenvalues of (default mixing * dielectric matrix)
  average eigenvalue GAMMA=   1.5745
  2.4538  0.9833  1.2865

 Free energy of the ion-electron system (eV)
  ---------------------------------------------------
  alpha Z        PSCENC =       148.42799685
  Ewald energy   TEWEN  =     -2533.30939684
  -Hartree energ DENC   =     -1354.40502121
  -exchange      EXHF   =         0.00000000
  -V(xc)+E(xc)   XCENC  =       139.39711878
  PAW double counting   =      4371.75635251    -4722.39477177
  entropy T*S    EENTRO =        -0.00000000
  eigenvalues    EBANDS =      -114.39848842
  atomic energy  EATOM  =      4051.30602026
  Solvation  Ediel_sol  =         0.00000000
  ---------------------------------------------------
  free energy    TOTEN  =       -13.62018983 eV

  energy without entropy =      -13.62018983  energy(sigma->0) =      -13.62018983


--------------------------------------------------------------------------------------------------------




--------------------------------------- Iteration      1(   9)  ---------------------------------------


    POTLOK:  cpu time      0.0719: real time      0.0907
    SETDIJ:  cpu time      0.0068: real time      0.0060
     EDDAV:  cpu time     10.5608: real time     10.8389
       DOS:  cpu time      0.0001: real time      0.0001
    CHARGE:  cpu time      0.2382: real time      0.2000
    MIXING:  cpu time      0.0082: real time      0.0060
    --------------------------------------------
      LOOP:  cpu time     10.8860: real time     11.1418

 eigenvalue-minimisations  :  1470
 total energy-change (2. order) : 0.2118291E-03  (-0.4627125E-03)
 number of electron      35.9999968 magnetization 
 augmentation part       14.4311014 magnetization 

 Broyden mixing:
  rms(total) = 0.13071E-01    rms(broyden)= 0.13071E-01
  rms(prec ) = 0.15064E-01
  weight for this iteration     100.00

 eigenvalues of (default mixing * dielectric matrix)
  average eigenvalue GAMMA=   1.6014
  2.0650  2.0650  0.9986  1.2771

 Free energy of the ion-electron system (eV)
  ---------------------------------------------------
  alpha Z        PSCENC =       148.42799685
  Ewald energy   TEWEN  =     -2533.30939684
  -Hartree energ DENC   =     -1353.69362397
  -exchange      EXHF   =         0.00000000
  -V(xc)+E(xc)   XCENC  =       139.36869484
  PAW double counting   =      4448.55316735    -4799.30951597
  entropy T*S    EENTRO =        -0.00000000
  eigenvalues    EBANDS =      -114.96332054
  atomic energy  EATOM  =      4051.30602026
  Solvation  Ediel_sol  =         0.00000000
  ---------------------------------------------------
  free energy    TOTEN  =       -13.61997800 eV

  energy without entropy =      -13.61997800  energy(sigma->0) =      -13.61997800


--------------------------------------------------------------------------------------------------------




--------------------------------------- Iteration      1(  10)  ---------------------------------------


    POTLOK:  cpu time      0.1072: real time      0.0993
    SETDIJ:  cpu time      0.0034: real time      0.0036
     EDDAV:  cpu time      9.6230: real time      9.2674
       DOS:  cpu time      0.0001: real time      0.0004
    CHARGE:  cpu time      0.2093: real time      0.2042
    MIXING:  cpu time      0.0079: real time      0.0063
    --------------------------------------------
      LOOP:  cpu time      9.9510: real time      9.5813

 eigenvalue-minimisations  :  1372
 total energy-change (2. order) :-0.2670407E-03  (-0.3197402E-04)
 number of electron      35.9999968 magnetization 
 augmentation part       14.4307959 magnetization 

 Broyden mixing:
  rms(total) = 0.53750E-02    rms(broyden)= 0.53749E-02
  rms(prec ) = 0.68704E-02
  weight for this iteration     100.00

 eigenvalues of (default mixing * dielectric matrix)
  average eigenvalue GAMMA=   1.7418
  2.7124  2.4296  1.0146  1.0883  1.4642

 Free energy of the ion-electron system (eV)
  ---------------------------------------------------
  alpha Z        PSCENC =       148.42799685
  Ewald energy   TEWEN  =     -2533.30939684
  -Hartree energ DENC   =     -1353.87011314
  -exchange      EXHF   =         0.00000000
  -V(xc)+E(xc)   XCENC  =       139.37219091
  PAW double counting   =      4429.00532303    -4779.70314245
  entropy T*S    EENTRO =        -0.00000000
  eigenvalues    EBANDS =      -114.84912368
  atomic energy  EATOM  =      4051.30602026
  Solvation  Ediel_sol  =         0.00000000
  ---------------------------------------------------
  free energy    TOTEN  =       -13.62024504 eV

  energy without entropy =      -13.62024504  energy(sigma->0) =      -13.62024504


--------------------------------------------------------------------------------------------------------




--------------------------------------- Iteration      1(  11)  ---------------------------------------


    POTLOK:  cpu time      0.1163: real time      0.0987
    SETDIJ:  cpu time      0.0084: real time      0.0070
     EDDAV:  cpu time      9.1435: real time      9.4350
       DOS:  cpu time      0.0001: real time      0.0001
    CHARGE:  cpu time      0.2055: real time      0.2113
    MIXING:  cpu time      0.0053: real time      0.0055
    --------------------------------------------
      LOOP:  cpu time      9.4792: real time      9.7576

 eigenvalue-minimisations  :  1330
 total energy-change (2. order) :-0.6916937E-04  (-0.9186378E-05)
 number of electron      35.9999968 magnetization 
 augmentation part       14.4311075 magnetization 

 Broyden mixing:
  rms(total) = 0.11288E-02    rms(broyden)= 0.11288E-02
  rms(prec ) = 0.12489E-02
  weight for this iteration     100.00

 eigenvalues of (default mixing * dielectric matrix)
  average eigenvalue GAMMA=   1.5892
  2.6284  2.3171  1.6672  1.1804  0.9919  0.7503

 Free energy of the ion-electron system (eV)
  ---------------------------------------------------
  alpha Z        PSCENC =       148.42799685
  Ewald energy   TEWEN  =     -2533.30939684
  -Hartree energ DENC   =     -1353.92018962
  -exchange      EXHF   =         0.00000000
  -V(xc)+E(xc)   XCENC  =       139.37885101
  PAW double counting   =      4432.35990226    -4783.08688238
  entropy T*S    EENTRO =        -0.00000000
  eigenvalues    EBANDS =      -114.77661576
  atomic energy  EATOM  =      4051.30602026
  Solvation  Ediel_sol  =         0.00000000
  ---------------------------------------------------
  free energy    TOTEN  =       -13.62031421 eV

  energy without entropy =      -13.62031421  energy(sigma->0) =      -13.62031421


--------------------------------------------------------------------------------------------------------




--------------------------------------- Iteration      1(  12)  ---------------------------------------


    POTLOK:  cpu time      0.1584: real time      0.1981
    SETDIJ:  cpu time      0.0077: real time      0.0074
     EDDAV:  cpu time     14.1251: real time     14.4055
       DOS:  cpu time      0.0001: real time      0.0001
    CHARGE:  cpu time      0.2141: real time      0.2560
    MIXING:  cpu time      0.0056: real time      0.0058
    --------------------------------------------
      LOOP:  cpu time     14.5110: real time     14.8728

 eigenvalue-minimisations  :  1554
 total energy-change (2. order) :-0.1748049E-05  (-0.8000207E-06)
 number of electron      35.9999968 magnetization 
 augmentation part       14.4309953 magnetization 

 Broyden mixing:
  rms(total) = 0.78847E-03    rms(broyden)= 0.78847E-03
  rms(prec ) = 0.89605E-03
  weight for this iteration     100.00

 eigenvalues of (default mixing * dielectric matrix)
  average eigenvalue GAMMA=   1.7430
  3.0805  2.4484  2.4484  1.3774  0.9913  0.9913  0.8640

 Free energy of the ion-electron system (eV)
  ---------------------------------------------------
  alpha Z        PSCENC =       148.42799685
  Ewald energy   TEWEN  =     -2533.30939684
  -Hartree energ DENC   =     -1353.93179453
  -exchange      EXHF   =         0.00000000
  -V(xc)+E(xc)   XCENC  =       139.37923064
  PAW double counting   =      4432.43804858    -4783.17065375
  entropy T*S    EENTRO =        -0.00000000
  eigenvalues    EBANDS =      -114.75976717
  atomic energy  EATOM  =      4051.30602026
  Solvation  Ediel_sol  =         0.00000000
  ---------------------------------------------------
  free energy    TOTEN  =       -13.62031596 eV

  energy without entropy =      -13.62031596  energy(sigma->0) =      -13.62031596


--------------------------------------------------------------------------------------------------------




--------------------------------------- Iteration      1(  13)  ---------------------------------------


    POTLOK:  cpu time      0.1017: real time      0.1041
    SETDIJ:  cpu time      0.0156: real time      0.0153
     EDDAV:  cpu time      9.0007: real time      9.2903
       DOS:  cpu time      0.0001: real time      0.0001
    CHARGE:  cpu time      0.2264: real time      0.2037
    MIXING:  cpu time      0.0055: real time      0.0058
    --------------------------------------------
      LOOP:  cpu time      9.3499: real time      9.6195

 eigenvalue-minimisations  :  1246
 total energy-change (2. order) :-0.1753006E-05  (-0.3195793E-06)
 number of electron      35.9999968 magnetization 
 augmentation part       14.4310332 magnetization 

 Broyden mixing:
  rms(total) = 0.29322E-03    rms(broyden)= 0.29322E-03
  rms(prec ) = 0.30396E-03
  weight for this iteration     100.00

 eigenvalues of (default mixing * dielectric matrix)
  average eigenvalue GAMMA=   1.6734
  3.1252  2.5050  2.3154  1.5091  1.1613  0.9991  0.8860  0.8860

 Free energy of the ion-electron system (eV)
  ---------------------------------------------------
  alpha Z        PSCENC =       148.42799685
  Ewald energy   TEWEN  =     -2533.30939684
  -Hartree energ DENC   =     -1353.94469765
  -exchange      EXHF   =         0.00000000
  -V(xc)+E(xc)   XCENC  =       139.37915966
  PAW double counting   =      4431.52392736    -4782.25095341
  entropy T*S    EENTRO =        -0.00000000
  eigenvalues    EBANDS =      -114.75237395
  atomic energy  EATOM  =      4051.30602026
  Solvation  Ediel_sol  =         0.00000000
  ---------------------------------------------------
  free energy    TOTEN  =       -13.62031771 eV

  energy without entropy =      -13.62031771  energy(sigma->0) =      -13.62031771


--------------------------------------------------------------------------------------------------------




--------------------------------------- Iteration      1(  14)  ---------------------------------------


    POTLOK:  cpu time      0.1145: real time      0.1028
    SETDIJ:  cpu time      0.0058: real time      0.0055
     EDDAV:  cpu time      8.8632: real time      8.8861
       DOS:  cpu time      0.0001: real time      0.0001
    --------------------------------------------
      LOOP:  cpu time      8.9836: real time      8.9945

 eigenvalue-minimisations  :  1036
 total energy-change (2. order) : 0.9593805E-08  (-0.1460000E-07)
 number of electron      35.9999968 magnetization 
 augmentation part       14.4310332 magnetization 

 Free energy of the ion-electron system (eV)
  ---------------------------------------------------
  alpha Z        PSCENC =       148.42799685
  Ewald energy   TEWEN  =     -2533.30939684
  -Hartree energ DENC   =     -1353.94606315
  -exchange      EXHF   =         0.00000000
  -V(xc)+E(xc)   XCENC  =       139.37912850
  PAW double counting   =      4431.64681125    -4782.37470992
  entropy T*S    EENTRO =        -0.00000000
  eigenvalues    EBANDS =      -114.75010466
  atomic energy  EATOM  =      4051.30602026
  Solvation  Ediel_sol  =         0.00000000
  ---------------------------------------------------
  free energy    TOTEN  =       -13.62031770 eV

  energy without entropy =      -13.62031770  energy(sigma->0) =      -13.62031770


--------------------------------------------------------------------------------------------------------




 average (electrostatic) potential at core
  the test charge radii are     0.9521  0.9698
  (the norm of the test charge is              1.0000)
       1 -36.0117       2 -36.0117       3 -88.3171       4 -88.3171



 E-fermi :   2.6143     XC(G=0):  -9.7899     alpha+bet : -8.3449

 val. band max:        2.4617115394   @ k =   0.0000   0.0000   0.0000
 cond. band min:       4.8070661283   @ k =   0.0000   0.0000   0.0000
 fundamental gap:      2.3453545889
 Fermi energy:         2.6143350620

 k-point     1 :       0.0000    0.0000    0.0000
  band No.  band energies     occupation 
      1     -10.9569      2.00000
      2      -9.9591      2.00000
      3      -4.0300      2.00000
      4      -4.0155      2.00000
      5      -4.0155      2.00000
      6      -3.9282      2.00000
      7      -3.9282      2.00000
      8      -3.5391      2.00000
      9      -3.5391      2.00000
     10      -3.4542      2.00000
     11      -3.4542      2.00000
     12      -3.3051      2.00000
     13      -3.0767      2.00000
     14       1.5206      2.00000
     15       1.5206      2.00000
     16       2.3792      2.00000
     17       2.4617      2.00000
     18       2.4617      2.00000
     19       4.8071      0.00000
     20       5.6123      0.00000
     21       8.7450      0.00000
     22       8.7450      0.00000
     23       9.0159      0.00000
     24      10.1648      0.00000
     25      10.1648      0.00000
     26      11.8828      0.00000
     27      12.5054      0.00000
     28      12.5054      0.00000

 k-point     2 :       0.1667    0.0000    0.0000
  band No.  band energies     occupation 
      1     -10.7637      2.00000
      2      -9.8537      2.00000
      3      -4.0344      2.00000
      4      -3.9905      2.00000
      5      -3.9789      2.00000
      6      -3.9051      2.00000
      7      -3.8727      2.00000
      8      -3.5655      2.00000
      9      -3.5433      2.00000
     10      -3.5382      2.00000
     11      -3.4455      2.00000
     12      -3.2301      2.00000
     13      -2.8075      2.00000
     14       0.2581      2.00000
     15       1.1044      2.00000
     16       1.1288      2.00000
     17       2.1188      2.00000
     18       2.2242      2.00000
     19       5.9380      0.00000
     20       6.5617      0.00000
     21       8.2526      0.00000
     22       9.2215      0.00000
     23       9.2660      0.00000
     24      10.0951      0.00000
     25      10.7732      0.00000
     26      11.0036      0.00000
     27      11.6463      0.00000
     28      12.2169      0.00000

 k-point     3 :       0.3333    0.0000    0.0000
  band No.  band energies     occupation 
      1     -10.2978      2.00000
      2      -9.6650      2.00000
      3      -4.0334      2.00000
      4      -3.9322      2.00000
      5      -3.9226      2.00000
      6      -3.7736      2.00000
      7      -3.7541      2.00000
      8      -3.6324      2.00000
      9      -3.5471      2.00000
     10      -3.5044      2.00000
     11      -3.4273      2.00000
     12      -3.1400      2.00000
     13      -2.3932      2.00000
     14      -1.2589      2.00000
     15      -0.6064      2.00000
     16       0.4161      2.00000
     17       1.3438      2.00000
     18       1.7542      2.00000
     19       6.3195      0.00000
     20       6.7569      0.00000
     21       8.0485      0.00000
     22       9.2641      0.00000
     23       9.4663      0.00000
     24      11.0071      0.00000
     25      11.1971      0.00000
     26      12.3065      0.00000
     27      12.9542      0.00000
     28      13.5665      0.00000

 k-point     4 :       0.5000    0.0000    0.0000
  band No.  band energies     occupation 
      1      -9.9734      2.00000
      2      -9.6267      2.00000
      3      -4.0167      2.00000
      4      -3.9053      2.00000
      5      -3.7948      2.00000
      6      -3.7566      2.00000
      7      -3.6938      2.00000
      8      -3.6259      2.00000
      9      -3.4669      2.00000
     10      -3.4144      2.00000
     11      -3.3599      2.00000
     12      -3.3164      2.00000
     13      -2.4913      2.00000
     14      -1.7828      2.00000
     15      -0.9593      2.00000
     16       0.1087      2.00000
     17       0.6852      2.00000
     18       1.5300      2.00000
     19       6.0934      0.00000
     20       6.7922      0.00000
     21       7.5531      0.00000
     22       9.3534      0.00000
     23       9.9947      0.00000
     24      10.8581      0.00000
     25      11.6139      0.00000
     26      14.1092      0.00000
     27      14.6638      0.00000
     28      15.1845      0.00000

 k-point     5 :       0.1667    0.1667    0.0000
  band No.  band energies     occupation 
      1     -10.4302      2.00000
      2      -9.7060      2.00000
      3      -3.9970      2.00000
      4      -3.9683      2.00000
      5      -3.9315      2.00000
      6      -3.8517      2.00000
      7      -3.7740      2.00000
      8      -3.5869      2.00000
      9      -3.5644      2.00000
     10      -3.5380      2.00000
     11      -3.4319      2.00000
     12      -3.1720      2.00000
     13      -2.4305      2.00000
     14      -0.7126      2.00000
     15      -0.3167      2.00000
     16       0.3721      2.00000
     17       1.5654      2.00000
     18       1.6325      2.00000
     19       6.9853      0.00000
     20       7.5341      0.00000
     21       8.1053      0.00000
     22       8.2918      0.00000
     23       9.6975      0.00000
     24      10.0656      0.00000
     25      11.0429      0.00000
     26      11.4901      0.00000
     27      12.7559      0.00000
     28      12.9452      0.00000

 k-point     6 :       0.3333    0.1667    0.0000
  band No.  band energies     occupation 
      1      -9.9892      2.00000
      2      -9.6188      2.00000
      3      -3.9925      2.00000
      4      -3.8932      2.00000
      5      -3.7953      2.00000
      6      -3.7268      2.00000
      7      -3.6681      2.00000
      8      -3.6326      2.00000
      9      -3.5405      2.00000
     10      -3.5073      2.00000
     11      -3.3925      2.00000
     12      -3.1025      2.00000
     13      -2.4229      2.00000
     14      -1.5117      2.00000
     15      -0.9206      2.00000
     16      -0.4691      2.00000
     17       0.7826      2.00000
     18       0.9458      2.00000
     19       7.1597      0.00000
     20       7.4395      0.00000
     21       7.6778      0.00000
     22       9.5104      0.00000
     23       9.6685      0.00000
     24      11.0543      0.00000
     25      11.6466      0.00000
     26      12.1882      0.00000
     27      13.6083      0.00000
     28      14.3359      0.00000

 k-point     7 :       0.3333    0.3333    0.0000
  band No.  band energies     occupation 
      1      -9.7134      2.00000
      2      -9.7134      2.00000
      3      -4.0019      2.00000
      4      -3.7899      2.00000
      5      -3.7899      2.00000
      6      -3.6598      2.00000
      7      -3.5848      2.00000
      8      -3.5848      2.00000
      9      -3.5265      2.00000
     10      -3.5093      2.00000
     11      -3.2605      2.00000
     12      -3.2605      2.00000
     13      -1.9739      2.00000
     14      -1.9739      2.00000
     15      -1.5722      2.00000
     16       0.0264      2.00000
     17       0.0264      2.00000
     18       0.2718      2.00000
     19       6.6373      0.00000
     20       8.5033      0.00000
     21       8.5033      0.00000
     22      10.3709      0.00000
     23      10.5251      0.00000
     24      10.5251      0.00000
     25      12.1012      0.00000
     26      12.1012      0.00000
     27      12.7388      0.00000
     28      13.9522      0.00000

 k-point     8 :       0.0000    0.0000    0.2500
  band No.  band energies     occupation 
      1     -10.8315      2.00000
      2     -10.1306      2.00000
      3      -4.0399      2.00000
      4      -4.0069      2.00000
      5      -4.0069      2.00000
      6      -3.9454      2.00000
      7      -3.9454      2.00000
      8      -3.8078      2.00000
      9      -3.5235      2.00000
     10      -3.5235      2.00000
     11      -3.4632      2.00000
     12      -3.4632      2.00000
     13      -2.0483      2.00000
     14       1.2631      2.00000
     15       1.6478      2.00000
     16       1.6478      2.00000
     17       2.3117      2.00000
     18       2.3117      2.00000
     19       5.7037      0.00000
     20       5.7704      0.00000
     21       8.7207      0.00000
     22       8.8415      0.00000
     23       8.8415      0.00000
     24       9.8044      0.00000
     25       9.8044      0.00000
     26      10.9845      0.00000
     27      13.0994      0.00000
     28      13.0995      0.00000

 k-point     9 :       0.1667    0.0000    0.2500
  band No.  band energies     occupation 
      1     -10.6466      2.00000
      2     -10.0061      2.00000
      3      -4.0512      2.00000
      4      -3.9843      2.00000
      5      -3.9669      2.00000
      6      -3.9288      2.00000
      7      -3.8920      2.00000
      8      -3.7812      2.00000
      9      -3.5380      2.00000
     10      -3.5229      2.00000
     11      -3.4574      2.00000
     12      -3.4284      2.00000
     13      -1.9219      2.00000
     14       0.4105      2.00000
     15       0.6344      2.00000
     16       1.2513      2.00000
     17       1.7844      2.00000
     18       2.0386      2.00000
     19       6.3597      0.00000
     20       6.7633      0.00000
     21       8.2838      0.00000
     22       8.8040      0.00000
     23       9.4063      0.00000
     24       9.4770      0.00000
     25      10.6133      0.00000
     26      10.9519      0.00000
     27      12.2062      0.00000
     28      12.7670      0.00000

 k-point    10 :       0.3333    0.0000    0.2500
  band No.  band energies     occupation 
      1     -10.2092      2.00000
      2      -9.7612      2.00000
      3      -4.0525      2.00000
      4      -3.9633      2.00000
      5      -3.9000      2.00000
      6      -3.7879      2.00000
      7      -3.7804      2.00000
      8      -3.7271      2.00000
      9      -3.5244      2.00000
     10      -3.4954      2.00000
     11      -3.4418      2.00000
     12      -3.3158      2.00000
     13      -2.1186      2.00000
     14      -1.1396      2.00000
     15      -0.4959      2.00000
     16       0.5897      2.00000
     17       1.3692      2.00000
     18       1.5270      2.00000
     19       6.0494      0.00000
     20       6.7153      0.00000
     21       8.1739      0.00000
     22       8.7469      0.00000
     23       9.9262      0.00000
     24      10.6811      0.00000
     25      11.3942      0.00000
     26      12.3405      0.00000
     27      12.5296      0.00000
     28      13.7897      0.00000

 k-point    11 :       0.5000    0.0000    0.2500
  band No.  band energies     occupation 
      1      -9.9180      2.00000
      2      -9.6716      2.00000
      3      -4.0383      2.00000
      4      -3.9156      2.00000
      5      -3.8761      2.00000
      6      -3.7402      2.00000
      7      -3.7250      2.00000
      8      -3.6279      2.00000
      9      -3.4634      2.00000
     10      -3.4290      2.00000
     11      -3.3042      2.00000
     12      -3.2944      2.00000
     13      -2.6698      2.00000
     14      -2.1043      2.00000
     15      -0.2882      2.00000
     16       0.2943      2.00000
     17       0.9775      2.00000
     18       1.2885      2.00000
     19       5.9473      0.00000
     20       6.2375      0.00000
     21       8.1861      0.00000
     22       8.4561      0.00000
     23       9.8985      0.00000
     24      10.5923      0.00000
     25      12.4630      0.00000
     26      13.2282      0.00000
     27      14.6043      0.00000
     28      15.5775      0.00000

 k-point    12 :       0.1667    0.1667    0.2500
  band No.  band energies     occupation 
      1     -10.3319      2.00000
      2      -9.8200      2.00000
      3      -4.0237      2.00000
      4      -3.9654      2.00000
      5      -3.9198      2.00000
      6      -3.8688      2.00000
      7      -3.7992      2.00000
      8      -3.7447      2.00000
      9      -3.5500      2.00000
     10      -3.5065      2.00000
     11      -3.4441      2.00000
     12      -3.3523      2.00000
     13      -1.8992      2.00000
     14      -0.5844      2.00000
     15      -0.3132      2.00000
     16       0.4105      2.00000
     17       1.3263      2.00000
     18       1.5689      2.00000
     19       6.7615      0.00000
     20       7.5504      0.00000
     21       8.3668      0.00000
     22       8.4481      0.00000
     23       9.3753      0.00000
     24       9.8366      0.00000
     25      10.8446      0.00000
     26      11.5867      0.00000
     27      12.7924      0.00000
     28      13.1993      0.00000

 k-point    13 :       0.3333    0.1667    0.2500
  band No.  band energies     occupation 
      1      -9.9309      2.00000
      2      -9.6678      2.00000
      3      -3.9882      2.00000
      4      -3.9101      2.00000
      5      -3.8453      2.00000
      6      -3.7425      2.00000
      7      -3.7097      2.00000
      8      -3.6839      2.00000
      9      -3.5130      2.00000
     10      -3.4885      2.00000
     11      -3.3802      2.00000
     12      -3.1643      2.00000
     13      -2.4708      2.00000
     14      -1.7849      2.00000
     15      -0.5639      2.00000
     16      -0.0311      2.00000
     17       0.6346      2.00000
     18       1.1021      2.00000
     19       6.6756      0.00000
     20       7.4816      0.00000
     21       8.1105      0.00000
     22       8.6587      0.00000
     23       9.4463      0.00000
     24      10.9010      0.00000
     25      11.6513      0.00000
     26      12.3308      0.00000
     27      13.2671      0.00000
     28      14.6021      0.00000

 k-point    14 :       0.3333    0.3333    0.2500
  band No.  band energies     occupation 
      1      -9.7045      2.00000
      2      -9.7045      2.00000
      3      -3.9613      2.00000
      4      -3.8406      2.00000
      5      -3.8406      2.00000
      6      -3.7139      2.00000
      7      -3.6086      2.00000
      8      -3.6086      2.00000
      9      -3.5320      2.00000
     10      -3.5307      2.00000
     11      -3.1995      2.00000
     12      -3.1995      2.00000
     13      -2.2334      2.00000
     14      -2.2334      2.00000
     15      -1.3286      2.00000
     16      -0.0565      2.00000
     17       0.5435      2.00000
     18       0.5435      2.00000
     19       7.2808      0.00000
     20       7.7477      0.00000
     21       7.7477      0.00000
     22      10.0362      0.00000
     23      10.0362      0.00000
     24      10.0994      0.00000
     25      12.5134      0.00000
     26      12.8451      0.00000
     27      12.9017      0.00000
     28      12.9017      0.00000

 k-point    15 :       0.0000    0.0000    0.5000
  band No.  band energies     occupation 
      1     -10.5035      2.00000
      2     -10.5035      2.00000
      3      -4.0163      2.00000
      4      -4.0163      2.00000
      5      -3.9803      2.00000
      6      -3.9803      2.00000
      7      -3.9803      2.00000
      8      -3.9803      2.00000
      9      -3.4901      2.00000
     10      -3.4901      2.00000
     11      -3.4901      2.00000
     12      -3.4901      2.00000
     13      -0.4788      2.00000
     14      -0.4788      2.00000
     15       1.9684      2.00000
     16       1.9684      2.00000
     17       1.9684      2.00000
     18       1.9684      2.00000
     19       6.1069      0.00000
     20       6.1069      0.00000
     21       9.2092      0.00000
     22       9.2092      0.00000
     23       9.2092      0.00000
     24       9.2092      0.00000
     25       9.3650      0.00000
     26       9.3650      0.00000
     27      14.5801      0.00000
     28      14.5803      0.00000

 k-point    16 :       0.1667    0.0000    0.5000
  band No.  band energies     occupation 
      1     -10.3437      2.00000
      2     -10.3437      2.00000
      3      -4.0402      2.00000
      4      -4.0402      2.00000
      5      -3.9331      2.00000
      6      -3.9331      2.00000
      7      -3.9286      2.00000
      8      -3.9286      2.00000
      9      -3.4884      2.00000
     10      -3.4884      2.00000
     11      -3.4871      2.00000
     12      -3.4871      2.00000
     13      -0.5962      2.00000
     14      -0.5962      2.00000
     15       1.0369      2.00000
     16       1.0369      2.00000
     17       1.6261      2.00000
     18       1.6261      2.00000
     19       6.9609      0.00000
     20       6.9609      0.00000
     21       8.2350      0.00000
     22       8.2350      0.00000
     23       9.8619      0.00000
     24       9.8619      0.00000
     25       9.9237      0.00000
     26       9.9237      0.00000
     27      13.8154      0.00000
     28      13.8154      0.00000

 k-point    17 :       0.3333    0.0000    0.5000
  band No.  band energies     occupation 
      1      -9.9891      2.00000
      2      -9.9891      2.00000
      3      -4.0461      2.00000
      4      -4.0461      2.00000
      5      -3.8422      2.00000
      6      -3.8422      2.00000
      7      -3.8012      2.00000
      8      -3.8012      2.00000
      9      -3.4712      2.00000
     10      -3.4712      2.00000
     11      -3.4449      2.00000
     12      -3.4449      2.00000
     13      -1.6594      2.00000
     14      -1.6594      2.00000
     15       0.6428      2.00000
     16       0.6428      2.00000
     17       1.0328      2.00000
     18       1.0328      2.00000
     19       6.3792      0.00000
     20       6.3792      0.00000
     21       8.0816      0.00000
     22       8.0816      0.00000
     23      11.0618      0.00000
     24      11.0618      0.00000
     25      11.0627      0.00000
     26      11.0627      0.00000
     27      13.6582      0.00000
     28      13.6582      0.00000

 k-point    18 :       0.5000    0.0000    0.5000
  band No.  band energies     occupation 
      1      -9.7896      2.00000
      2      -9.7896      2.00000
      3      -4.0363      2.00000
      4      -4.0363      2.00000
      5      -3.8020      2.00000
      6      -3.8020      2.00000
      7      -3.6882      2.00000
      8      -3.6882      2.00000
      9      -3.4511      2.00000
     10      -3.4511      2.00000
     11      -3.2747      2.00000
     12      -3.2747      2.00000
     13      -2.5538      2.00000
     14      -2.5538      2.00000
     15       0.7537      2.00000
     16       0.7537      2.00000
     17       0.7648      2.00000
     18       0.7648      2.00000
     19       6.0142      0.00000
     20       6.0142      0.00000
     21       7.6641      0.00000
     22       7.6641      0.00000
     23      11.3232      0.00000
     24      11.3232      0.00000
     25      11.8121      0.00000
     26      11.8121      0.00000
     27      14.8983      0.00000
     28      14.8983      0.00000

 k-point    19 :       0.1667    0.1667    0.5000
  band No.  band energies     occupation 
      1     -10.0839      2.00000
      2     -10.0839      2.00000
      3      -4.0226      2.00000
      4      -4.0226      2.00000
      5      -3.8890      2.00000
      6      -3.8890      2.00000
      7      -3.8452      2.00000
      8      -3.8452      2.00000
      9      -3.4886      2.00000
     10      -3.4886      2.00000
     11      -3.4521      2.00000
     12      -3.4521      2.00000
     13      -1.2076      2.00000
     14      -1.2076      2.00000
     15       0.6643      2.00000
     16       0.6643      2.00000
     17       0.8912      2.00000
     18       0.8912      2.00000
     19       7.2173      0.00000
     20       7.2173      0.00000
     21       8.3606      0.00000
     22       8.3606      0.00000
     23       9.5346      0.00000
     24       9.5346      0.00000
     25      10.8832      0.00000
     26      10.8832      0.00000
     27      13.7271      0.00000
     28      13.7271      0.00000

 k-point    20 :       0.3333    0.1667    0.5000
  band No.  band energies     occupation 
      1      -9.7949      2.00000
      2      -9.7949      2.00000
      3      -3.9789      2.00000
      4      -3.9789      2.00000
      5      -3.8162      2.00000
      6      -3.8162      2.00000
      7      -3.7252      2.00000
      8      -3.7252      2.00000
      9      -3.4859      2.00000
     10      -3.4859      2.00000
     11      -3.3007      2.00000
     12      -3.3007      2.00000
     13      -2.2362      2.00000
     14      -2.2362      2.00000
     15       0.0119      2.00000
     16       0.0119      2.00000
     17       0.9251      2.00000
     18       0.9251      2.00000
     19       6.7335      0.00000
     20       6.7335      0.00000
     21       8.3962      0.00000
     22       8.3962      0.00000
     23      10.0034      0.00000
     24      10.0034      0.00000
     25      11.6416      0.00000
     26      11.6416      0.00000
     27      14.2786      0.00000
     28      14.2786      0.00000

 k-point    21 :       0.3333    0.3333    0.5000
  band No.  band energies     occupation 
      1      -9.6956      2.00000
      2      -9.6956      2.00000
      3      -3.8949      2.00000
      4      -3.8949      2.00000
      5      -3.8490      2.00000
      6      -3.8490      2.00000
      7      -3.6231      2.00000
      8      -3.6231      2.00000
      9      -3.5384      2.00000
     10      -3.5384      2.00000
     11      -3.1370      2.00000
     12      -3.1370      2.00000
     13      -2.4351      2.00000
     14      -2.4351      2.00000
     15      -0.7313      2.00000
     16      -0.7313      2.00000
     17       1.0410      2.00000
     18       1.0410      2.00000
     19       6.9988      0.00000
     20       6.9988      0.00000
     21       8.7959      0.00000
     22       8.7959      0.00000
     23       9.9348      0.00000
     24       9.9348      0.00000
     25      12.2220      0.00000
     26      12.2220      0.00000
     27      12.9191      0.00000
     28      12.9191      0.00000


--------------------------------------------------------------------------------------------------------


 soft charge-density along one line, spin component           1
         0         1         2         3         4         5         6         7         8         9
 total charge-density along one line

 pseudopotential strength for first ion, spin component:           1
 -9.572  -0.000   0.000   0.000   0.000  -9.950  -0.000   0.000
 -0.000  -9.572  -0.000  -0.000   0.000  -0.000  -9.949  -0.000
  0.000  -0.000  -9.572  -0.000   0.000   0.000  -0.000  -9.949
  0.000  -0.000  -0.000  -9.572  -0.000   0.000  -0.000  -0.000
  0.000   0.000   0.000  -0.000  -9.572   0.000   0.000   0.000
 -9.950  -0.000   0.000   0.000   0.000 -10.251  -0.000   0.000
 -0.000  -9.949  -0.000  -0.000   0.000  -0.000 -10.250  -0.000
  0.000  -0.000  -9.949  -0.000   0.000   0.000  -0.000 -10.250
[...]
     23       9.3789      0.00000
     24       9.8359      0.00000
     25      10.8465      0.00000
     26      11.5839      0.00000
     27      12.7916      0.00000
     28      13.2012      0.00000

 k-point    13 :       0.3333    0.1667    0.2500
  band No.  band energies     occupation 
      1      -9.9310      2.00000
      2      -9.6677      2.00000
      3      -3.9886      2.00000
      4      -3.9108      2.00000
      5      -3.8458      2.00000
      6      -3.7424      2.00000
      7      -3.7099      2.00000
      8      -3.6835      2.00000
      9      -3.5131      2.00000
     10      -3.4884      2.00000
     11      -3.3800      2.00000
     12      -3.1643      2.00000
     13      -2.4703      2.00000
     14      -1.7833      2.00000
     15      -0.5637      2.00000
     16      -0.0321      2.00000
     17       0.6373      2.00000
     18       1.1001      2.00000
     19       6.6744      0.00000
     20       7.4812      0.00000
     21       8.1092      0.00000
     22       8.6591      0.00000
     23       9.4474      0.00000
     24      10.9020      0.00000
     25      11.6507      0.00000
     26      12.3295      0.00000
     27      13.2659      0.00000
     28      14.6011      0.00000

 k-point    14 :       0.3333    0.3333    0.2500
  band No.  band energies     occupation 
      1      -9.7045      2.00000
      2      -9.7045      2.00000
      3      -3.9619      2.00000
      4      -3.8417      2.00000
      5      -3.8417      2.00000
      6      -3.7135      2.00000
      7      -3.6088      2.00000
      8      -3.6088      2.00000
      9      -3.5319      2.00000
     10      -3.5303      2.00000
     11      -3.1993      2.00000
     12      -3.1993      2.00000
     13      -2.2319      2.00000
     14      -2.2319      2.00000
     15      -1.3273      2.00000
     16      -0.0528      2.00000
     17       0.5413      2.00000
     18       0.5413      2.00000
     19       7.2763      0.00000
     20       7.7477      0.00000
     21       7.7477      0.00000
     22      10.0379      0.00000
     23      10.0379      0.00000
     24      10.0980      0.00000
     25      12.5137      0.00000
     26      12.8438      0.00000
     27      12.9028      0.00000
     28      12.9028      0.00000

 k-point    15 :       0.0000    0.0000    0.5000
  band No.  band energies     occupation 
      1     -10.5031      2.00000
      2     -10.5031      2.00000
      3      -4.0183      2.00000
      4      -4.0183      2.00000
      5      -3.9791      2.00000
      6      -3.9791      2.00000
      7      -3.9791      2.00000
      8      -3.9791      2.00000
      9      -3.4902      2.00000
     10      -3.4902      2.00000
     11      -3.4902      2.00000
     12      -3.4902      2.00000
     13      -0.4812      2.00000
     14      -0.4812      2.00000
     15       1.9683      2.00000
     16       1.9683      2.00000
     17       1.9683      2.00000
     18       1.9683      2.00000
     19       6.1086      0.00000
     20       6.1086      0.00000
     21       9.2106      0.00000
     22       9.2106      0.00000
     23       9.2106      0.00000
     24       9.2106      0.00000
     25       9.3662      0.00000
     26       9.3662      0.00000
     27      14.5792      0.00000
     28      14.5792      0.00000

 k-point    16 :       0.1667    0.0000    0.5000
  band No.  band energies     occupation 
      1     -10.3433      2.00000
      2     -10.3433      2.00000
      3      -4.0405      2.00000
      4      -4.0405      2.00000
      5      -3.9320      2.00000
      6      -3.9320      2.00000
      7      -3.9289      2.00000
      8      -3.9289      2.00000
      9      -3.4885      2.00000
     10      -3.4885      2.00000
     11      -3.4873      2.00000
     12      -3.4873      2.00000
     13      -0.5983      2.00000
     14      -0.5983      2.00000
     15       1.0372      2.00000
     16       1.0372      2.00000
     17       1.6266      2.00000
     18       1.6266      2.00000
     19       6.9616      0.00000
     20       6.9616      0.00000
     21       8.2358      0.00000
     22       8.2358      0.00000
     23       9.8642      0.00000
     24       9.8642      0.00000
     25       9.9238      0.00000
     26       9.9238      0.00000
     27      13.8131      0.00000
     28      13.8131      0.00000

 k-point    17 :       0.3333    0.0000    0.5000
  band No.  band energies     occupation 
      1      -9.9890      2.00000
      2      -9.9890      2.00000
      3      -4.0464      2.00000
      4      -4.0464      2.00000
      5      -3.8416      2.00000
      6      -3.8416      2.00000
      7      -3.8015      2.00000
      8      -3.8015      2.00000
      9      -3.4712      2.00000
     10      -3.4712      2.00000
     11      -3.4451      2.00000
     12      -3.4451      2.00000
     13      -1.6592      2.00000
     14      -1.6592      2.00000
     15       0.6413      2.00000
     16       0.6413      2.00000
     17       1.0342      2.00000
     18       1.0342      2.00000
     19       6.3784      0.00000
     20       6.3784      0.00000
     21       8.0840      0.00000
     22       8.0840      0.00000
     23      11.0586      0.00000
     24      11.0586      0.00000
     25      11.0634      0.00000
     26      11.0634      0.00000
     27      13.6573      0.00000
     28      13.6573      0.00000

 k-point    18 :       0.5000    0.0000    0.5000
  band No.  band energies     occupation 
      1      -9.7896      2.00000
      2      -9.7896      2.00000
      3      -4.0367      2.00000
      4      -4.0367      2.00000
      5      -3.8017      2.00000
      6      -3.8017      2.00000
      7      -3.6890      2.00000
      8      -3.6890      2.00000
      9      -3.4510      2.00000
     10      -3.4510      2.00000
     11      -3.2746      2.00000
     12      -3.2746      2.00000
     13      -2.5524      2.00000
     14      -2.5524      2.00000
     15       0.7517      2.00000
     16       0.7517      2.00000
     17       0.7666      2.00000
     18       0.7666      2.00000
     19       6.0129      0.00000
     20       6.0129      0.00000
     21       7.6671      0.00000
     22       7.6671      0.00000
     23      11.3189      0.00000
     24      11.3189      0.00000
     25      11.8113      0.00000
     26      11.8113      0.00000
     27      14.8986      0.00000
     28      14.8986      0.00000

 k-point    19 :       0.1667    0.1667    0.5000
  band No.  band energies     occupation 
      1     -10.0836      2.00000
      2     -10.0836      2.00000
      3      -4.0229      2.00000
      4      -4.0229      2.00000
      5      -3.8885      2.00000
      6      -3.8885      2.00000
      7      -3.8452      2.00000
      8      -3.8452      2.00000
      9      -3.4887      2.00000
     10      -3.4887      2.00000
     11      -3.4522      2.00000
     12      -3.4522      2.00000
     13      -1.2082      2.00000
     14      -1.2082      2.00000
     15       0.6642      2.00000
     16       0.6642      2.00000
     17       0.8917      2.00000
     18       0.8917      2.00000
     19       7.2161      0.00000
     20       7.2161      0.00000
     21       8.3621      0.00000
     22       8.3621      0.00000
     23       9.5372      0.00000
     24       9.5372      0.00000
     25      10.8809      0.00000
     26      10.8809      0.00000
     27      13.7268      0.00000
     28      13.7268      0.00000

 k-point    20 :       0.3333    0.1667    0.5000
  band No.  band energies     occupation 
      1      -9.7948      2.00000
      2      -9.7948      2.00000
      3      -3.9795      2.00000
      4      -3.9795      2.00000
      5      -3.8163      2.00000
      6      -3.8163      2.00000
      7      -3.7251      2.00000
      8      -3.7251      2.00000
      9      -3.4859      2.00000
     10      -3.4859      2.00000
     11      -3.3006      2.00000
     12      -3.3006      2.00000
     13      -2.2353      2.00000
     14      -2.2353      2.00000
     15       0.0135      2.00000
     16       0.0135      2.00000
     17       0.9235      2.00000
     18       0.9235      2.00000
     19       6.7324      0.00000
     20       6.7324      0.00000
     21       8.3983      0.00000
     22       8.3983      0.00000
     23      10.0012      0.00000
     24      10.0012      0.00000
     25      11.6420      0.00000
     26      11.6420      0.00000
     27      14.2770      0.00000
     28      14.2770      0.00000

 k-point    21 :       0.3333    0.3333    0.5000
  band No.  band energies     occupation 
      1      -9.6956      2.00000
      2      -9.6956      2.00000
      3      -3.8963      2.00000
      4      -3.8963      2.00000
      5      -3.8491      2.00000
      6      -3.8491      2.00000
      7      -3.6229      2.00000
      8      -3.6229      2.00000
      9      -3.5381      2.00000
     10      -3.5381      2.00000
     11      -3.1370      2.00000
     12      -3.1370      2.00000
     13      -2.4339      2.00000
     14      -2.4339      2.00000
     15      -0.7290      2.00000
     16      -0.7290      2.00000
     17       1.0391      2.00000
     18       1.0391      2.00000
     19       6.9987      0.00000
     20       6.9987      0.00000
     21       8.7928      0.00000
     22       8.7928      0.00000
     23       9.9364      0.00000
     24       9.9364      0.00000
     25      12.2217      0.00000
     26      12.2217      0.00000
     27      12.9210      0.00000
     28      12.9210      0.00000


--------------------------------------------------------------------------------------------------------


 soft charge-density along one line, spin component           1
         0         1         2         3         4         5         6         7         8         9
 total charge-density along one line

 pseudopotential strength for first ion, spin component:           1
 -9.573   0.000   0.000   0.000  -0.000  -9.950   0.000   0.000
  0.000  -9.572  -0.000  -0.000   0.000   0.000  -9.949  -0.000
  0.000  -0.000  -9.572   0.000   0.000   0.000  -0.000  -9.949
  0.000  -0.000   0.000  -9.572   0.000   0.000  -0.000   0.000
 -0.000   0.000   0.000   0.000  -9.573  -0.000   0.000   0.000
 -9.950   0.000   0.000   0.000  -0.000 -10.251   0.000   0.000
  0.000  -9.949  -0.000  -0.000   0.000   0.000 -10.250  -0.000
  0.000  -0.000  -9.949   0.000   0.000   0.000  -0.000 -10.250
  0.000  -0.000   0.000  -9.949   0.000   0.000  -0.000   0.000
 -0.000   0.000   0.000   0.000  -9.950  -0.000   0.000   0.000
 -0.000   0.000  -0.000   0.000  -0.000  -0.000   0.000  -0.000
 -0.000   0.000  -0.000   0.000  -0.000  -0.000   0.000  -0.000
 -0.000   0.002  -0.000  -0.000  -0.002  -0.000   0.002  -0.000
 -0.000   0.000  -0.003  -0.000   0.000  -0.000   0.000  -0.002
 -0.002  -0.000   0.000   0.002  -0.000  -0.002  -0.000   0.000
 -0.000   0.002  -0.000  -0.000  -0.003  -0.000   0.002  -0.000
 -0.000   0.000  -0.003  -0.000   0.000  -0.000   0.000  -0.002
 -0.003  -0.000   0.000   0.002  -0.000  -0.002  -0.000   0.000
 total augmentation occupancy for first ion, spin component:           1
  3.687  -0.000  -0.000  -0.746  -0.000  -1.690   0.000   0.000   0.744   0.000   0.000   0.000  -0.000   0.000  -0.602   0.000
 -0.000   3.166   0.000   0.000  -0.746   0.000  -1.171  -0.000  -0.000   0.744  -0.000   0.000   0.430  -0.000   0.000  -0.064
 -0.000   0.000   4.212   0.000  -0.000   0.000   0.000  -2.210  -0.000   0.000   0.001   0.001   0.000  -0.735   0.000   0.000
 -0.746   0.000   0.000   3.166  -0.000   0.744  -0.000  -0.000  -1.171  -0.000   0.000   0.000   0.000   0.000   0.430  -0.000
 -0.000  -0.746  -0.000   0.000   3.687   0.000   0.744   0.000   0.000  -1.690  -0.000   0.000  -0.602   0.000   0.000   0.090
 -1.690   0.000   0.000   0.744   0.000   1.686  -0.000  -0.000  -0.742  -0.000   0.000  -0.000   0.000  -0.000   0.585  -0.000
  0.000  -1.171  -0.000  -0.000   0.744  -0.000   1.169   0.000   0.000  -0.742   0.000  -0.000  -0.417  -0.000  -0.000   0.072
  0.000   0.000  -2.210  -0.000   0.000  -0.000   0.000   2.202   0.000  -0.000  -0.001  -0.001  -0.000   0.714  -0.000  -0.000
  0.744  -0.000  -0.000  -1.171  -0.000  -0.742   0.000   0.000   1.169   0.000   0.000   0.000  -0.000  -0.000  -0.417   0.000
  0.000   0.744   0.000   0.000  -1.690   0.000  -0.742  -0.000  -0.000   1.686   0.000  -0.000   0.585  -0.000  -0.000  -0.101
 -0.000  -0.000   0.001  -0.000  -0.000   0.000   0.000  -0.001  -0.000   0.000   2.597  -0.621  -0.000  -0.001   0.000   0.000
 -0.000   0.000   0.001   0.000   0.000  -0.000  -0.000  -0.001   0.000  -0.000  -0.621   0.176   0.000   0.001   0.000   0.000
 -0.000   0.430   0.000   0.000  -0.602   0.000  -0.417   0.000  -0.000   0.585  -0.000   0.000   0.386   0.000   0.000  -0.067
  0.000   0.000  -0.735   0.000   0.000  -0.000  -0.000   0.714  -0.000  -0.000  -0.001   0.001   0.000   0.386   0.000  -0.000
 -0.602   0.000   0.000   0.430   0.000   0.585  -0.000  -0.000  -0.417  -0.000   0.000   0.000   0.000   0.000   0.386  -0.000
  0.000  -0.064   0.000  -0.000   0.090  -0.000   0.072  -0.000   0.000  -0.101   0.000  -0.000  -0.067  -0.000  -0.000   0.014
 -0.000  -0.000   0.110  -0.000  -0.000   0.000  -0.000  -0.123   0.000   0.000   0.001  -0.000   0.000  -0.067  -0.000  -0.000
  0.090  -0.000  -0.000  -0.064   0.000  -0.101   0.000   0.000   0.072   0.000  -0.000   0.000  -0.000  -0.000  -0.067   0.000


------------------------ aborting loop because EDIFF is reached ----------------------------------------


    CHARGE:  cpu time      0.2257: real time      0.1929
    FORLOC:  cpu time      0.0073: real time      0.0064
    FORNL :  cpu time      0.0359: real time      0.0509
    STRESS:  cpu time      0.4173: real time      0.4319
    FORCOR:  cpu time      0.1094: real time      0.0930
    FORHAR:  cpu time      0.0246: real time      0.0247
    MIXING:  cpu time      0.0049: real time      0.0055
    OFIELD:  cpu time      0.0000: real time      0.0000

  FORCE on cell =-STRESS in cart. coord.  units (eV):
  Direction    XX          YY          ZZ          XY          YZ          ZX
  --------------------------------------------------------------------------------------
  Alpha Z   148.42800   148.42800   148.42800
  Ewald    -854.97108  -854.97108  -823.38409     0.00000    -0.00000    -0.00000
  Hartree   444.02995   444.02995   465.87142     0.00000    -0.00000    -0.00000
  E(xc)    -187.42711  -187.42711  -187.38293     0.00000     0.00000     0.00000
  Local      19.65523    19.65571   -33.43973     0.00000     0.00000     0.00000
  n-local    78.40797    83.14752    80.71135     2.63626     0.17080    -0.57197
  augment    46.83494    46.83456    46.89228    -0.00000     0.00000    -0.00000
  Kinetic   301.22659   308.61220   304.63813     5.44924     0.38421    -0.86408
  Fock        0.00000     0.00000     0.00000     0.00000     0.00000     0.00000
  -------------------------------------------------------------------------------------
  Total       2.24712     2.24712     2.33442     0.00000     0.00000     0.00000
  in kB      47.25707    47.25707    49.09310     0.00000     0.00000     0.00000
  external pressure =       47.87 kB  Pullay stress =        0.00 kB


 VOLUME and BASIS-vectors are now :
 -----------------------------------------------------------------------------
  energy-cutoff  :      520.00
  volume of cell :       76.19
      direct lattice vectors                 reciprocal lattice vectors
     1.885835882 -3.266363563  0.000000000     0.265134418 -0.153075428  0.000000000
     1.885835882  3.266363563  0.000000000     0.265134418  0.153075428 -0.000000000
     0.000000000  0.000000000  6.184024669    -0.000000000  0.000000000  0.161706988

  length of vectors
     3.771671765  3.771671765  6.184024669     0.306150856  0.306150856  0.161706988


 FORCES acting on ions
    electron-ion (+dipol)            ewald-force                    non-local-force                 convergence-correction
 -----------------------------------------------------------------------------------------------
   -.287E-06 0.466E-06 -.395E+01   0.838E-14 0.522E-11 0.390E+01   0.140E-17 0.672E-17 0.556E-01   -.256E-13 0.416E-10 -.192E-05
   -.287E-06 -.466E-06 -.395E+01   -.433E-15 -.522E-11 0.390E+01   -.110E-18 -.330E-17 0.556E-01   -.613E-13 -.416E-10 -.192E-05
   -.165E-06 0.425E-06 0.387E+01   -.153E-14 0.487E-11 -.390E+01   0.934E-17 -.190E-16 0.258E-01   0.737E-14 -.488E-10 0.169E-04
   -.165E-06 -.425E-06 0.387E+01   -.177E-14 -.487E-11 -.390E+01   -.430E-16 -.104E-16 0.258E-01   0.369E-13 0.488E-10 0.169E-04
 -----------------------------------------------------------------------------------------------
   -.904E-06 0.408E-12 -.161E+00   0.464E-14 0.203E-14 0.000E+00   -.323E-16 -.259E-16 0.163E+00   -.426E-13 -.436E-13 0.299E-04


 POSITION                                       TOTAL-FORCE (eV/Angst)
 -----------------------------------------------------------------------------------
      1.88584      1.08879      0.00255         0.000000      0.000000      0.000008
      1.88584     -1.08879      3.09456        -0.000000     -0.000000      0.000008
      1.88584      1.08879      2.31646         0.000000     -0.000000     -0.000008
      1.88584     -1.08879      5.40847        -0.000000      0.000000     -0.000008
 -----------------------------------------------------------------------------------
    total drift:                               -0.000001      0.000000      0.001311


--------------------------------------------------------------------------------------------------------



  FREE ENERGIE OF THE ION-ELECTRON SYSTEM (eV)
  ---------------------------------------------------
  free  energy   TOTEN  =       -13.62034107 eV

  energy  without entropy=      -13.62034107  energy(sigma->0) =      -13.62034107

 d Force = 0.3106817E-05[ 0.108E-07, 0.620E-05]  d Energy = 0.3077128E-05 0.297E-07
 d Force = 0.5405565E-02[ 0.535E-02, 0.546E-02]  d Ewald  = 0.5405589E-02-0.238E-07


--------------------------------------------------------------------------------------------------------


    POTLOK:  cpu time      0.1063: real time      0.1047


--------------------------------------------------------------------------------------------------------


 Quasi-Newton relaxation of ions (Broydens 2nd method)
  g(Force)  = 0.119E-10   g(Stress)= 0.000E+00

 retain information from N=  1 steps
 eigenvalues of (default step * inverse Hessian matrix)
  average eigenvalue of G=   1.5751
 eigenvalue spectrum of G is  1.5751


--------------------------------------------------------------------------------------------------------


  
 reached required accuracy - stopping structural energy minimisation
 writing wavefunctions
     LOOP+:  cpu time     57.4577: real time     58.8014
    4ORBIT:  cpu time      0.0000: real time      0.0000

 total amount of memory used by VASP MPI-rank0    47789. kBytes
=======================================================================

   base      :      30000. kBytes
   nonl-proj :      12664. kBytes
   fftplans  :        894. kBytes
   grid      :       2739. kBytes
   one-center:         62. kBytes
   wavefun   :       1430. kBytes

  
  
 General timing and accounting informations for this job:
 ========================================================
  
                  Total CPU time used (sec):      265.908
                            User time (sec):      162.461
                          System time (sec):      103.447
                         Elapsed time (sec):      270.264
  
                   Maximum memory used (kb):    77053952.
                   Average memory used (kb):          N/A
  
                          Minor page faults:        10634
                          Major page faults:          156
                 Voluntary context switches:           22
