 vasp.6.3.2 27Jun22 (build Mar 25 2023 04:39:50) complex                        
  
 executed on             LinuxIFC date 2026.01.01  04:25:13
 running on   64 total cores
 distrk:  each k-point on   64 cores,    1 groups
 distr:  one band on NCORE=   1 cores,   64 groups


--------------------------------------------------------------------------------------------------------


 INCAR:
   GGA = PE
   PREC = Accurate
   ENCUT = 520
   KSPACING = 0.3
   ISMEAR = 0
   SIGMA = 0.03
   EDIFF = 1e-6
   NELM = 120
   NELMIN = 8
   ISIF = 3
   IBRION = 1
   EDIFFG = -1e-3
   NSW = 200

 POTCAR:    PAW_PBE Zn 06Sep2000                  
 POTCAR:    PAW_PBE S 06Sep2000                   
 -----------------------------------------------------------------------------
|                                                                             |
|           W    W    AA    RRRRR   N    N  II  N    N   GGGG   !!!           |
|           W    W   A  A   R    R  NN   N  II  NN   N  G    G  !!!           |
|           W    W  A    A  R    R  N N  N  II  N N  N  G       !!!           |
|           W WW W  AAAAAA  RRRRR   N  N N  II  N  N N  G  GGG   !            |
|           WW  WW  A    A  R   R   N   NN  II  N   NN  G    G                |
|           W    W  A    A  R    R  N    N  II  N    N   GGGG   !!!           |
|                                                                             |
|     For optimal performance we recommend to set                             |
|       NCORE = 2 up to number-of-cores-per-socket                            |
|     NCORE specifies how many cores store one orbital (NPAR=cpu/NCORE).      |
|     This setting can greatly improve the performance of VASP for DFT.       |
|     The default, NCORE=1 might be grossly inefficient on modern             |
|     multi-core architectures or massively parallel machines. Do your        |
|     own testing! More info at https://www.vasp.at/wiki/index.php/NCORE      |
|     Unfortunately you need to use the default for GW and RPA                |
|     calculations (for HF NCORE is supported but not extensively tested      |
|     yet).                                                                   |
|                                                                             |
 -----------------------------------------------------------------------------

 POTCAR:    PAW_PBE Zn 06Sep2000                  
   SHA256 =  501fddbd8274dd8e9725d4f3de27861d7f1e553a7e18441bc79fed8f346e7f23 Zn/POTCAR             
   COPYR  = (c) Copyright 06Sep2000 Georg Kresse                                                    
   COPYR  = This file is part of the software VASP. Any use, copying, and all other rights are regul
   COPYR  = If you do not have a valid VASP license, you may not use, copy or distribute this file. 
   VRHFIN =Zn: d10 p2                                                                               
   LEXCH  = PE                                                                                      
   EATOM  =  1748.8345 eV,  128.5357 Ry                                                             
                                                                                                    
   TITEL  = PAW_PBE Zn 06Sep2000                                                                    
   LULTRA =        F    use ultrasoft PP ?                                                          
   IUNSCR =        1    unscreen: 0-lin 1-nonlin 2-no                                               
   RPACOR =    2.000    partial core radius                                                         
   POMASS =   65.390; ZVAL   =   12.000    mass and valenz                                          
   RCORE  =    2.300    outmost cutoff radius                                                       
   RWIGS  =    2.400; RWIGS  =    1.270    wigner-seitz radius (au A)                               
   ENMAX  =  276.723; ENMIN  =  207.542 eV                                                          
   RCLOC  =    1.828    cutoff for local pot                                                        
   LCOR   =        T    correct aug charges                                                         
   LPAW   =        T    paw PP                                                                      
   EAUG   =  575.892                                                                                
   DEXC   =    0.000                                                                                
   RMAX   =    2.347    core radius for proj-oper                                                   
   RAUG   =    1.300    factor for augmentation sphere                                              
   RDEP   =    2.324    radius for radial grids                                                     
   RDEPT  =    1.788    core radius for aug-charge                                                  
                                                                                                    
   Atomic configuration                                                                             
    9 entries                                                                                       
     n  l   j            E        occ.                                                              
     1  0  0.50     -9524.6913   2.0000                                                             
     2  0  0.50     -1158.1882   2.0000                                                             
     2  1  1.50     -1003.8506   6.0000                                                             
     3  0  0.50      -129.2194   2.0000                                                             
     3  1  1.50       -83.3890   6.0000                                                             
     3  2  2.50       -10.1410  10.0000                                                             
     4  0  0.50        -5.9785   2.0000                                                             
     4  1  0.50        -4.0817   0.0000                                                             
     4  3  2.50        -1.3606   0.0000                                                             
   Description                                                                                      
     l       E           TYP  RCUT    TYP  RCUT                                                     
     2    -10.1410010     23  2.300                                                                 
     2    -11.5015836     23  2.300                                                                 
     0     -5.9785163     23  2.300                                                                 
     0      1.1858015     23  2.300                                                                 
     1     -2.7211652     23  2.300                                                                 
     1     13.2444212     23  2.300                                                                 
  local pseudopotential read in
  partial core-charges read in
  partial kinetic energy density read in
  atomic valenz-charges read in
  non local Contribution for L=           2  read in
    real space projection operators read in
  non local Contribution for L=           2  read in
    real space projection operators read in
  non local Contribution for L=           0  read in
    real space projection operators read in
  non local Contribution for L=           0  read in
    real space projection operators read in
  non local Contribution for L=           1  read in
    real space projection operators read in
  non local Contribution for L=           1  read in
    real space projection operators read in
    PAW grid and wavefunctions read in
 
   number of l-projection  operators is LMAX  =           6
   number of lm-projection operators is LMMAX =          18
 
 POTCAR:    PAW_PBE S 06Sep2000                   
   SHA256 =  0fc7481fb0695f01bdc6462160264c5c84044ae9ec85a907d398b887a2bc3132 S/POTCAR              
   COPYR  = (c) Copyright 06Sep2000 Georg Kresse                                                    
   COPYR  = This file is part of the software VASP. Any use, copying, and all other rights are regul
   COPYR  = If you do not have a valid VASP license, you may not use, copy or distribute this file. 
   VRHFIN =S : s2p4                                                                                 
   LEXCH  = PE                                                                                      
   EATOM  =   276.8230 eV,   20.3459 Ry                                                             
                                                                                                    
   TITEL  = PAW_PBE S 06Sep2000                                                                     
   LULTRA =        F    use ultrasoft PP ?                                                          
   IUNSCR =        1    unscreen: 0-lin 1-nonlin 2-no                                               
   RPACOR =    1.500    partial core radius                                                         
   POMASS =   32.066; ZVAL   =    6.000    mass and valenz                                          
   RCORE  =    1.900    outmost cutoff radius                                                       
   RWIGS  =    2.200; RWIGS  =    1.164    wigner-seitz radius (au A)                               
   ENMAX  =  258.689; ENMIN  =  194.016 eV                                                          
   ICORE  =        2    local potential                                                             
   LCOR   =        T    correct aug charges                                                         
   LPAW   =        T    paw PP                                                                      
   EAUG   =  335.092                                                                                
   DEXC   =    0.000                                                                                
   RMAX   =    1.942    core radius for proj-oper                                                   
   RAUG   =    1.300    factor for augmentation sphere                                              
   RDEP   =    1.954    radius for radial grids                                                     
   RDEPT  =    1.744    core radius for aug-charge                                                  
                                                                                                    
   Atomic configuration                                                                             
    6 entries                                                                                       
     n  l   j            E        occ.                                                              
     1  0  0.50     -2405.8406   2.0000                                                             
     2  0  0.50      -211.7007   2.0000                                                             
     2  1  1.50      -156.4958   6.0000                                                             
     3  0  0.50       -17.2562   2.0000                                                             
     3  1  0.50        -7.0085   4.0000                                                             
     3  2  1.50        -6.8029   0.0000                                                             
   Description                                                                                      
     l       E           TYP  RCUT    TYP  RCUT                                                     
     0    -17.2561641     23  1.900                                                                 
     0    -15.8743224     23  1.900                                                                 
     1     -7.0085400     23  1.900                                                                 
     1     -2.7779785     23  1.900                                                                 
     2     -6.8029130     23  1.900                                                                 
  local pseudopotential read in
  partial core-charges read in
  partial kinetic energy density read in
  atomic valenz-charges read in
  non local Contribution for L=           0  read in
    real space projection operators read in
  non local Contribution for L=           0  read in
    real space projection operators read in
  non local Contribution for L=           1  read in
    real space projection operators read in
  non local Contribution for L=           1  read in
    real space projection operators read in
    PAW grid and wavefunctions read in
 
   number of l-projection  operators is LMAX  =           4
   number of lm-projection operators is LMMAX =           8
 
  PAW_PBE Zn 06Sep2000                  :
 energy of atom  1       EATOM=-1748.8345
 kinetic energy error for atom=    0.0029 (will be added to EATOM!!)
  PAW_PBE S 06Sep2000                   :
 energy of atom  2       EATOM= -276.8230
 kinetic energy error for atom=    0.0016 (will be added to EATOM!!)
 
 
 POSCAR: Zn2 S2
  positions in direct lattice
  velocities in cartesian coordinates
 exchange correlation table for  LEXCH =        8
   RHO(1)=    0.500       N(1)  =     2000
   RHO(2)=  100.500       N(2)  =     4000
 


--------------------------------------------------------------------------------------------------------


 ion  position               nearest neighbor table
   1  0.333  0.667  0.000-   4 2.33   4 2.33   4 2.33   3 2.34
   2  0.667  0.333  0.500-   3 2.33   3 2.33   3 2.33   4 2.34
   3  0.333  0.667  0.375-   2 2.33   2 2.33   2 2.33   1 2.34
   4  0.667  0.333  0.875-   1 2.33   1 2.33   1 2.33   2 2.34
 
  LATTYP: Found a hexagonal cell.
 ALAT       =     3.8057964671
 C/A-ratio  =     1.6390738927
  
  Lattice vectors:
  
 A1 = (   1.9028982335,  -3.2959164221,   0.0000000000)
 A2 = (   1.9028982335,   3.2959164221,   0.0000000000)
 A3 = (   0.0000000000,   0.0000000000,   6.2379816300)


Analysis of symmetry for initial positions (statically):
=====================================================================
 Subroutine PRICEL returns:
 Original cell was already a primitive cell.
 

 Routine SETGRP: Setting up the symmetry group for a 
 hexagonal supercell.


 Subroutine GETGRP returns: Found 12 space group operations
 (whereof  6 operations were pure point group operations)
 out of a pool of 24 trial point group operations.


The static configuration has the point symmetry C_3v.
 The point group associated with its full space group is C_6v.


Analysis of symmetry for dynamics (positions and initial velocities):
=====================================================================
 Subroutine PRICEL returns:
 Original cell was already a primitive cell.
 

 Routine SETGRP: Setting up the symmetry group for a 
 hexagonal supercell.


 Subroutine GETGRP returns: Found 12 space group operations
 (whereof  6 operations were pure point group operations)
 out of a pool of 24 trial point group operations.


The dynamic configuration has the point symmetry C_3v.
 The point group associated with its full space group is C_6v.


 Subroutine INISYM returns: Found 12 space group operations
 (whereof  6 operations are pure point group operations),
 and found     1 'primitive' translations


----------------------------------------------------------------------------------------

                                     Primitive cell                                     

  volume of cell :      78.2467

  direct lattice vectors                    reciprocal lattice vectors
     1.902898234 -3.295916422  0.000000000     0.262757089 -0.151702876  0.000000000
     1.902898234  3.295916422  0.000000000     0.262757089  0.151702876  0.000000000
     0.000000000  0.000000000  6.237981630     0.000000000  0.000000000  0.160308263

  length of vectors
     3.805796467  3.805796467  6.237981630     0.303405752  0.303405752  0.160308263

  position of ions in fractional coordinates (direct lattice)
     0.333333333  0.666666667  0.000311508
     0.666666667  0.333333333  0.500311508
     0.333333333  0.666666667  0.374688492
     0.666666667  0.333333333  0.874688492

  ion indices of the primitive-cell ions
   primitive index   ion index
                 1           1
                 2           2
                 3           3
                 4           4

----------------------------------------------------------------------------------------

 
 
 KPOINTS: Automatic kpoint scheme                 

Automatic generation of k-mesh.
 Grid dimensions read from file:
 generate k-points for:    6    6    4

 Generating k-lattice:

  Cartesian coordinates                     Fractional coordinates (reciprocal lattice)
     0.043792848 -0.025283813  0.000000000     0.166666667  0.000000000  0.000000000
     0.043792848  0.025283813  0.000000000     0.000000000  0.166666667  0.000000000
     0.000000000  0.000000000  0.040077066     0.000000000  0.000000000  0.250000000

  Length of vectors
     0.050567625  0.050567625  0.040077066

  Shift w.r.t. Gamma in fractional coordinates (k-lattice)
     0.000000000  0.000000000  0.000000000

 
 Subroutine IBZKPT returns following result:
 ===========================================
 
 Found     21 irreducible k-points:
 
 Following reciprocal coordinates:
            Coordinates               Weight
  0.000000  0.000000  0.000000      1.000000
  0.166667  0.000000  0.000000      6.000000
  0.333333 -0.000000  0.000000      6.000000
  0.500000 -0.000000  0.000000      3.000000
  0.166667  0.166667  0.000000      6.000000
  0.333333  0.166667  0.000000     12.000000
  0.333333  0.333333  0.000000      2.000000
  0.000000  0.000000  0.250000      2.000000
  0.166667  0.000000  0.250000     12.000000
  0.333333 -0.000000  0.250000     12.000000
  0.500000 -0.000000  0.250000      6.000000
  0.166667  0.166667  0.250000     12.000000
  0.333333  0.166667  0.250000     24.000000
  0.333333  0.333333  0.250000      4.000000
  0.000000  0.000000  0.500000      1.000000
  0.166667  0.000000  0.500000      6.000000
  0.333333 -0.000000  0.500000      6.000000
  0.500000 -0.000000  0.500000      3.000000
  0.166667  0.166667  0.500000      6.000000
  0.333333  0.166667  0.500000     12.000000
  0.333333  0.333333  0.500000      2.000000
 
 Following cartesian coordinates:
            Coordinates               Weight
  0.000000  0.000000  0.000000      1.000000
  0.043793 -0.025284  0.000000      6.000000
  0.087586 -0.050568  0.000000      6.000000
  0.131379 -0.075851  0.000000      3.000000
  0.087586  0.000000  0.000000      6.000000
  0.131379 -0.025284  0.000000     12.000000
  0.175171  0.000000  0.000000      2.000000
  0.000000  0.000000  0.040077      2.000000
  0.043793 -0.025284  0.040077     12.000000
  0.087586 -0.050568  0.040077     12.000000
  0.131379 -0.075851  0.040077      6.000000
  0.087586  0.000000  0.040077     12.000000
  0.131379 -0.025284  0.040077     24.000000
  0.175171  0.000000  0.040077      4.000000
  0.000000  0.000000  0.080154      1.000000
  0.043793 -0.025284  0.080154      6.000000
  0.087586 -0.050568  0.080154      6.000000
  0.131379 -0.075851  0.080154      3.000000
  0.087586  0.000000  0.080154      6.000000
  0.131379 -0.025284  0.080154     12.000000
  0.175171  0.000000  0.080154      2.000000
 


--------------------------------------------------------------------------------------------------------




 Dimension of arrays:
   k-points           NKPTS =     21   k-points in BZ     NKDIM =     21   number of bands    NBANDS=     64
   number of dos      NEDOS =    301   number of ions     NIONS =      4
   non local maximal  LDIM  =      6   non local SUM 2l+1 LMDIM =     18
   total plane-waves  NPLWV =  37632
   max r-space proj   IRMAX =      1   max aug-charges    IRDMAX=  15350
   dimension x,y,z NGX =    28 NGY =   28 NGZ =   48
   dimension x,y,z NGXF=    56 NGYF=   56 NGZF=   96
   support grid    NGXF=    56 NGYF=   56 NGZF=   96
   ions per type =               2   2
   NGX,Y,Z   is equivalent  to a cutoff of  12.23, 12.23, 12.79 a.u.
   NGXF,Y,Z  is equivalent  to a cutoff of  24.46, 24.46, 25.58 a.u.

 SYSTEM =  unknown system                          
 POSCAR =  Zn2 S2                                  

 Startparameter for this run:
   NWRITE =      2    write-flag & timer
   PREC   = accura    normal or accurate (medium, high low for compatibility)
   ISTART =      0    job   : 0-new  1-cont  2-samecut
   ICHARG =      2    charge: 1-file 2-atom 10-const
   ISPIN  =      1    spin polarized calculation?
   LNONCOLLINEAR =      F non collinear calculations
   LSORBIT =      F    spin-orbit coupling
   INIWAV =      1    electr: 0-lowe 1-rand  2-diag
   LASPH  =      F    aspherical Exc in radial PAW
 Electronic Relaxation 1
   ENCUT  =  520.0 eV  38.22 Ry    6.18 a.u.   7.08  7.08 11.60*2*pi/ulx,y,z
   ENINI  =  520.0     initial cutoff
   ENAUG  =  575.9 eV  augmentation charge cutoff
   NELM   =    120;   NELMIN=  8; NELMDL= -5     # of ELM steps 
   EDIFF  = 0.1E-05   stopping-criterion for ELM
   LREAL  =      F    real-space projection
   NLSPLINE    = F    spline interpolate recip. space projectors
   LCOMPAT=      F    compatible to vasp.4.4
   GGA_COMPAT  = T    GGA compatible to vasp.4.4-vasp.4.6
   LMAXPAW     = -100 max onsite density
   LMAXMIX     =    2 max onsite mixed and CHGCAR
   VOSKOWN=      0    Vosko Wilk Nusair interpolation
   ROPT   =    0.00000   0.00000
 Ionic relaxation
   EDIFFG = -.1E-02   stopping-criterion for IOM
   NSW    =    200    number of steps for IOM
   NBLOCK =      1;   KBLOCK =    200    inner block; outer block 
   IBRION =      1    ionic relax: 0-MD 1-quasi-New 2-CG
   NFREE  =      0    steps in history (QN), initial steepest desc. (CG)
   ISIF   =      3    stress and relaxation
   IWAVPR =     11    prediction:  0-non 1-charg 2-wave 3-comb
   ISYM   =      2    0-nonsym 1-usesym 2-fastsym
   LCORR  =      T    Harris-Foulkes like correction to forces

   POTIM  = 0.5000    time-step for ionic-motion
   TEIN   =    0.0    initial temperature
   TEBEG  =    0.0;   TEEND  =   0.0 temperature during run
   SMASS  =  -3.00    Nose mass-parameter (am)
   estimated Nose-frequenzy (Omega)   =  0.10E-29 period in steps = 0.13E+47 mass=  -0.331E-27a.u.
   SCALEE = 1.0000    scale energy and forces
   NPACO  =    256;   APACO  = 10.0  distance and # of slots for P.C.
   PSTRESS=    0.0 pullay stress

  Mass of Ions in am
   POMASS =  65.39 32.07
  Ionic Valenz
   ZVAL   =  12.00  6.00
  Atomic Wigner-Seitz radii
   RWIGS  =  -1.00 -1.00
  virtual crystal weights 
   VCA    =   1.00  1.00
   NELECT =      36.0000    total number of electrons
   NUPDOWN=      -1.0000    fix difference up-down

 DOS related values:
   EMIN   =  10.00;   EMAX   =-10.00  energy-range for DOS
   EFERMI =   0.00
   ISMEAR =     0;   SIGMA  =   0.03  broadening in eV -4-tet -1-fermi 0-gaus

 Electronic relaxation 2 (details)
   IALGO  =     38    algorithm
   LDIAG  =      T    sub-space diagonalisation (order eigenvalues)
   LSUBROT=      F    optimize rotation matrix (better conditioning)
   TURBO    =      0    0=normal 1=particle mesh
   IRESTART =      0    0=no restart 2=restart with 2 vectors
   NREBOOT  =      0    no. of reboots
   NMIN     =      0    reboot dimension
   EREF     =   0.00    reference energy to select bands
   IMIX   =      4    mixing-type and parameters
     AMIX     =   0.40;   BMIX     =  1.00
     AMIX_MAG =   1.60;   BMIX_MAG =  1.00
     AMIN     =   0.10
     WC   =   100.;   INIMIX=   1;  MIXPRE=   1;  MAXMIX= -45

 Intra band minimization:
   WEIMIN = 0.0010     energy-eigenvalue tresh-hold
   EBREAK =  0.39E-08  absolut break condition
   DEPER  =   0.30     relativ break condition  

   TIME   =   0.40     timestep for ELM

  volume/ion in A,a.u.               =      19.56       132.01
  Fermi-wavevector in a.u.,A,eV,Ry     =   1.263825  2.388284 21.731966  1.597254
  Thomas-Fermi vector in A             =   2.397162
 
 Write flags
   LWAVE        =      T    write WAVECAR
   LDOWNSAMPLE  =      F    k-point downsampling of WAVECAR
   LCHARG       =      T    write CHGCAR
   LVTOT        =      F    write LOCPOT, total local potential
   LVHAR        =      F    write LOCPOT, Hartree potential only
   LELF         =      F    write electronic localiz. function (ELF)
   LORBIT       =      0    0 simple, 1 ext, 2 COOP (PROOUT), +10 PAW based schemes


 Dipole corrections
   LMONO  =      F    monopole corrections only (constant potential shift)
   LDIPOL =      F    correct potential (dipole corrections)
   IDIPOL =      0    1-x, 2-y, 3-z, 4-all directions 
   EPSILON=  1.0000000 bulk dielectric constant

 Exchange correlation treatment:
   GGA     =    PE    GGA type
   LEXCH   =     8    internal setting for exchange type
   LIBXC   =     F    Libxc                    
   VOSKOWN =     0    Vosko Wilk Nusair interpolation
   LHFCALC =     F    Hartree Fock is set to
   LHFONE  =     F    Hartree Fock one center treatment
   AEXX    =    0.0000 exact exchange contribution

 Linear response parameters
   LEPSILON=     F    determine dielectric tensor
   LRPA    =     F    only Hartree local field effects (RPA)
   LNABLA  =     F    use nabla operator in PAW spheres
   LVEL    =     F    velocity operator in full k-point grid
   CSHIFT  =0.1000    complex shift for real part using Kramers Kronig
   OMEGAMAX=  -1.0    maximum frequency
   DEG_THRESHOLD= 0.2000000E-02 threshold for treating states as degnerate
   RTIME   =   -0.100 relaxation time in fs
  (WPLASMAI=    0.000 imaginary part of plasma frequency in eV, 0.658/RTIME)
   DFIELD  = 0.0000000 0.0000000 0.0000000 field for delta impulse in time
 
  Optional k-point grid parameters
   LKPOINTS_OPT  =     F    use optional k-point grid
   KPOINTS_OPT_MODE=     1    mode for optional k-point grid
 
 Orbital magnetization related:
   ORBITALMAG=     F  switch on orbital magnetization
   LCHIMAG   =     F  perturbation theory with respect to B field
   DQ        =  0.001000  dq finite difference perturbation B field
   LLRAUG    =     F  two centre corrections for induced B field



--------------------------------------------------------------------------------------------------------


 quasi-Newton-method for relaxation of ions
 charge density and potential will be updated during run
 non-spin polarized calculation
 Variant of blocked Davidson
 Davidson routine will perform the subspace rotation
 perform sub-space diagonalisation
    after iterative eigenvector-optimisation
 modified Broyden-mixing scheme, WC =      100.0
 initial mixing is a Kerker type mixing with AMIX =  0.4000 and BMIX =      1.0000
 Hartree-type preconditioning will be used
 using additional bands           46
 reciprocal scheme for non local part
 use partial core corrections
 calculate Harris-corrections to forces 
   (improved forces if not selfconsistent)
 use gradient corrections 
 use of overlap-Matrix (Vanderbilt PP)
 Gauss-broadening in eV      SIGMA  =   0.03


--------------------------------------------------------------------------------------------------------


  energy-cutoff  :      520.00
  volume of cell :       78.25
      direct lattice vectors                 reciprocal lattice vectors
     1.902898234 -3.295916422  0.000000000     0.262757089 -0.151702876  0.000000000
     1.902898234  3.295916422  0.000000000     0.262757089  0.151702876  0.000000000
     0.000000000  0.000000000  6.237981630     0.000000000  0.000000000  0.160308263

  length of vectors
     3.805796467  3.805796467  6.237981630     0.303405752  0.303405752  0.160308263


 
 k-points in units of 2pi/SCALE and weight: Automatic kpoint scheme                 
   0.00000000  0.00000000  0.00000000       0.007
   0.04379285 -0.02528381  0.00000000       0.042
   0.08758570 -0.05056763  0.00000000       0.042
   0.13137854 -0.07585144  0.00000000       0.021
   0.08758570  0.00000000  0.00000000       0.042
   0.13137854 -0.02528381  0.00000000       0.083
   0.17517139  0.00000000  0.00000000       0.014
   0.00000000  0.00000000  0.04007707       0.014
   0.04379285 -0.02528381  0.04007707       0.083
   0.08758570 -0.05056763  0.04007707       0.083
   0.13137854 -0.07585144  0.04007707       0.042
   0.08758570  0.00000000  0.04007707       0.083
   0.13137854 -0.02528381  0.04007707       0.167
   0.17517139  0.00000000  0.04007707       0.028
   0.00000000  0.00000000  0.08015413       0.007
   0.04379285 -0.02528381  0.08015413       0.042
   0.08758570 -0.05056763  0.08015413       0.042
   0.13137854 -0.07585144  0.08015413       0.021
   0.08758570  0.00000000  0.08015413       0.042
   0.13137854 -0.02528381  0.08015413       0.083
   0.17517139  0.00000000  0.08015413       0.014
 
 k-points in reciprocal lattice and weights: Automatic kpoint scheme                 
   0.00000000  0.00000000  0.00000000       0.007
   0.16666667  0.00000000  0.00000000       0.042
   0.33333333 -0.00000000  0.00000000       0.042
   0.50000000 -0.00000000  0.00000000       0.021
   0.16666667  0.16666667  0.00000000       0.042
   0.33333333  0.16666667  0.00000000       0.083
   0.33333333  0.33333333  0.00000000       0.014
   0.00000000  0.00000000  0.25000000       0.014
   0.16666667  0.00000000  0.25000000       0.083
   0.33333333 -0.00000000  0.25000000       0.083
   0.50000000 -0.00000000  0.25000000       0.042
   0.16666667  0.16666667  0.25000000       0.083
   0.33333333  0.16666667  0.25000000       0.167
   0.33333333  0.33333333  0.25000000       0.028
   0.00000000  0.00000000  0.50000000       0.007
   0.16666667  0.00000000  0.50000000       0.042
   0.33333333 -0.00000000  0.50000000       0.042
   0.50000000 -0.00000000  0.50000000       0.021
   0.16666667  0.16666667  0.50000000       0.042
   0.33333333  0.16666667  0.50000000       0.083
   0.33333333  0.33333333  0.50000000       0.014
 
 position of ions in fractional coordinates (direct lattice) 
   0.33333333  0.66666667  0.00031151
   0.66666667  0.33333333  0.50031151
   0.33333333  0.66666667  0.37468849
   0.66666667  0.33333333  0.87468849
 
 position of ions in cartesian coordinates  (Angst):
   1.90289823  1.09863881  0.00194318
   1.90289823 -1.09863881  3.12093399
   1.90289823  1.09863881  2.33729993
   1.90289823 -1.09863881  5.45629075
 


--------------------------------------------------------------------------------------------------------


 k-point   1 :   0.0000 0.0000 0.0000  plane waves:    2093
 k-point   2 :   0.1667 0.0000 0.0000  plane waves:    2114
 k-point   3 :   0.3333-0.0000 0.0000  plane waves:    2112
 k-point   4 :   0.5000-0.0000 0.0000  plane waves:    2100
 k-point   5 :   0.1667 0.1667 0.0000  plane waves:    2101
 k-point   6 :   0.3333 0.1667 0.0000  plane waves:    2111
 k-point   7 :   0.3333 0.3333 0.0000  plane waves:    2121
 k-point   8 :   0.0000 0.0000 0.2500  plane waves:    2099
 k-point   9 :   0.1667 0.0000 0.2500  plane waves:    2096
 k-point  10 :   0.3333-0.0000 0.2500  plane waves:    2100
 k-point  11 :   0.5000-0.0000 0.2500  plane waves:    2116
 k-point  12 :   0.1667 0.1667 0.2500  plane waves:    2106
 k-point  13 :   0.3333 0.1667 0.2500  plane waves:    2112
 k-point  14 :   0.3333 0.3333 0.2500  plane waves:    2115
 k-point  15 :   0.0000 0.0000 0.5000  plane waves:    2076
 k-point  16 :   0.1667 0.0000 0.5000  plane waves:    2078
 k-point  17 :   0.3333-0.0000 0.5000  plane waves:    2108
 k-point  18 :   0.5000-0.0000 0.5000  plane waves:    2116
 k-point  19 :   0.1667 0.1667 0.5000  plane waves:    2118
 k-point  20 :   0.3333 0.1667 0.5000  plane waves:    2112
 k-point  21 :   0.3333 0.3333 0.5000  plane waves:    2130

 maximum and minimum number of plane-waves per node :      2130     2076

 maximum number of plane-waves:      2130
 maximum index in each direction: 
   IXMAX=    7   IYMAX=    7   IZMAX=   11
   IXMIN=   -7   IYMIN=   -7   IZMIN=  -12


 serial   3D FFT for wavefunctions
 parallel 3D FFT for charge:
    minimum data exchange during FFTs selected (reduces bandwidth)


 total amount of memory used by VASP MPI-rank0    46289. kBytes
=======================================================================

   base      :      30000. kBytes
   nonl-proj :      13299. kBytes
   fftplans  :        353. kBytes
   grid      :       1823. kBytes
   one-center:         62. kBytes
   wavefun   :        752. kBytes
 
     INWAV:  cpu time      0.0000: real time      0.0000
 Broyden mixing: mesh for mixing (old mesh)
   NGX = 15   NGY = 15   NGZ = 23
  (NGX  = 56   NGY  = 56   NGZ  = 96)
  gives a total of   5175 points

 initial charge density was supplied:
 charge density of overlapping atoms calculated
 number of electron      36.0000000 magnetization 
 keeping initial charge density in first step


--------------------------------------------------------------------------------------------------------


 Maximum index for augmentation-charges            0 (set IRDMAX)


--------------------------------------------------------------------------------------------------------


 First call to EWALD:  gamma=   0.414
 Maximum number of real-space cells 3x 3x 2
 Maximum number of reciprocal cells 2x 2x 4

    FEWALD:  cpu time      0.0010: real time      0.0010


--------------------------------------- Iteration      1(   1)  ---------------------------------------


    POTLOK:  cpu time      0.0333: real time      0.1269
    SETDIJ:  cpu time      0.0080: real time      0.0106
     EDDAV:  cpu time      3.1402: real time      3.2482
       DOS:  cpu time      0.0024: real time      0.0046
    --------------------------------------------
      LOOP:  cpu time      3.1839: real time      3.3903

 eigenvalue-minimisations  :  2688
 total energy-change (2. order) : 0.3526323E+02  (-0.2003818E+04)
 number of electron      36.0000000 magnetization 
 augmentation part       36.0000000 magnetization 

 Free energy of the ion-electron system (eV)
  ---------------------------------------------------
  alpha Z        PSCENC =       144.51722449
  Ewald energy   TEWEN  =     -2510.86064844
  -Hartree energ DENC   =     -1379.90844445
  -exchange      EXHF   =         0.00000000
  -V(xc)+E(xc)   XCENC  =       138.78545129
  PAW double counting   =      3345.42656771    -3694.17617221
  entropy T*S    EENTRO =        -0.00000000
  eigenvalues    EBANDS =       -59.82676661
  atomic energy  EATOM  =      4051.30602026
  Solvation  Ediel_sol  =         0.00000000
  ---------------------------------------------------
  free energy    TOTEN  =        35.26323204 eV

  energy without entropy =       35.26323204  energy(sigma->0) =       35.26323204


--------------------------------------------------------------------------------------------------------




--------------------------------------- Iteration      1(   2)  ---------------------------------------


     EDDAV:  cpu time      3.1435: real time      3.1463
       DOS:  cpu time      0.0005: real time      0.0005
    --------------------------------------------
      LOOP:  cpu time      3.1440: real time      3.1468

 eigenvalue-minimisations  :  3968
 total energy-change (2. order) :-0.4961401E+02  (-0.4961401E+02)
 number of electron      36.0000000 magnetization 
 augmentation part       36.0000000 magnetization 

 Free energy of the ion-electron system (eV)
  ---------------------------------------------------
  alpha Z        PSCENC =       144.51722449
  Ewald energy   TEWEN  =     -2510.86064844
  -Hartree energ DENC   =     -1379.90844445
  -exchange      EXHF   =         0.00000000
  -V(xc)+E(xc)   XCENC  =       138.78545129
  PAW double counting   =      3345.42656771    -3694.17617221
  entropy T*S    EENTRO =        -0.00000000
  eigenvalues    EBANDS =      -109.44078118
  atomic energy  EATOM  =      4051.30602026
  Solvation  Ediel_sol  =         0.00000000
  ---------------------------------------------------
  free energy    TOTEN  =       -14.35078252 eV

  energy without entropy =      -14.35078252  energy(sigma->0) =      -14.35078252


--------------------------------------------------------------------------------------------------------




--------------------------------------- Iteration      1(   3)  ---------------------------------------


     EDDAV:  cpu time      1.0800: real time      1.0801
       DOS:  cpu time      0.0008: real time      0.0008
    --------------------------------------------
      LOOP:  cpu time      1.0808: real time      1.0809

 eigenvalue-minimisations  :  2688
 total energy-change (2. order) :-0.1766762E+00  (-0.1766762E+00)
 number of electron      36.0000000 magnetization 
 augmentation part       36.0000000 magnetization 

 Free energy of the ion-electron system (eV)
  ---------------------------------------------------
  alpha Z        PSCENC =       144.51722449
  Ewald energy   TEWEN  =     -2510.86064844
  -Hartree energ DENC   =     -1379.90844445
  -exchange      EXHF   =         0.00000000
  -V(xc)+E(xc)   XCENC  =       138.78545129
  PAW double counting   =      3345.42656771    -3694.17617221
  entropy T*S    EENTRO =        -0.00000000
  eigenvalues    EBANDS =      -109.61745736
  atomic energy  EATOM  =      4051.30602026
  Solvation  Ediel_sol  =         0.00000000
  ---------------------------------------------------
  free energy    TOTEN  =       -14.52745870 eV

  energy without entropy =      -14.52745870  energy(sigma->0) =      -14.52745870


--------------------------------------------------------------------------------------------------------




--------------------------------------- Iteration      1(   4)  ---------------------------------------


     EDDAV:  cpu time      4.3978: real time      4.3994
       DOS:  cpu time      0.0006: real time      0.0006
    --------------------------------------------
      LOOP:  cpu time      4.3984: real time      4.3999

 eigenvalue-minimisations  :  5056
 total energy-change (2. order) :-0.1696227E-03  (-0.1696227E-03)
 number of electron      36.0000000 magnetization 
 augmentation part       36.0000000 magnetization 

 Free energy of the ion-electron system (eV)
  ---------------------------------------------------
  alpha Z        PSCENC =       144.51722449
  Ewald energy   TEWEN  =     -2510.86064844
  -Hartree energ DENC   =     -1379.90844445
  -exchange      EXHF   =         0.00000000
  -V(xc)+E(xc)   XCENC  =       138.78545129
  PAW double counting   =      3345.42656771    -3694.17617221
  entropy T*S    EENTRO =        -0.00000000
  eigenvalues    EBANDS =      -109.61762698
  atomic energy  EATOM  =      4051.30602026
  Solvation  Ediel_sol  =         0.00000000
  ---------------------------------------------------
  free energy    TOTEN  =       -14.52762833 eV

  energy without entropy =      -14.52762833  energy(sigma->0) =      -14.52762833


--------------------------------------------------------------------------------------------------------




--------------------------------------- Iteration      1(   5)  ---------------------------------------


     EDDAV:  cpu time      1.2949: real time      1.2951
       DOS:  cpu time      0.0005: real time      0.0005
    CHARGE:  cpu time      0.0181: real time      0.0318
    MIXING:  cpu time      0.0022: real time      0.0032
    --------------------------------------------
      LOOP:  cpu time      1.3158: real time      1.3306

 eigenvalue-minimisations  :  2688
 total energy-change (2. order) :-0.9008545E-09  (-0.9000759E-09)
 number of electron      35.9999977 magnetization 
 augmentation part       14.2406378 magnetization 

 Broyden mixing:
  rms(total) = 0.98487E+00    rms(broyden)= 0.98487E+00
  rms(prec ) = 0.12343E+01
  weight for this iteration     100.00

 Free energy of the ion-electron system (eV)
  ---------------------------------------------------
  alpha Z        PSCENC =       144.51722449
  Ewald energy   TEWEN  =     -2510.86064844
  -Hartree energ DENC   =     -1379.90844445
  -exchange      EXHF   =         0.00000000
  -V(xc)+E(xc)   XCENC  =       138.78545129
  PAW double counting   =      3345.42656771    -3694.17617221
  entropy T*S    EENTRO =        -0.00000000
  eigenvalues    EBANDS =      -109.61762698
  atomic energy  EATOM  =      4051.30602026
  Solvation  Ediel_sol  =         0.00000000
  ---------------------------------------------------
  free energy    TOTEN  =       -14.52762833 eV

  energy without entropy =      -14.52762833  energy(sigma->0) =      -14.52762833


--------------------------------------------------------------------------------------------------------




--------------------------------------- Iteration      1(   6)  ---------------------------------------


    POTLOK:  cpu time      0.0044: real time      0.0044
    SETDIJ:  cpu time      0.0016: real time      0.0016
     EDDAV:  cpu time      2.4871: real time      2.4884
       DOS:  cpu time      0.0004: real time      0.0004
    CHARGE:  cpu time      0.0167: real time      0.0167
    MIXING:  cpu time      0.0009: real time      0.0080
    --------------------------------------------
      LOOP:  cpu time      2.5111: real time      2.5196

 eigenvalue-minimisations  :  3776
 total energy-change (2. order) : 0.7934699E+00  (-0.3951383E+00)
 number of electron      35.9999977 magnetization 
 augmentation part       14.4838162 magnetization 

 Broyden mixing:
  rms(total) = 0.79448E+00    rms(broyden)= 0.79448E+00
  rms(prec ) = 0.82803E+00
  weight for this iteration     100.00

 eigenvalues of (default mixing * dielectric matrix)
  average eigenvalue GAMMA=   1.8723
  1.8723

 Free energy of the ion-electron system (eV)
  ---------------------------------------------------
  alpha Z        PSCENC =       144.51722449
  Ewald energy   TEWEN  =     -2510.86064844
  -Hartree energ DENC   =     -1366.56889812
  -exchange      EXHF   =         0.00000000
  -V(xc)+E(xc)   XCENC  =       138.74997445
  PAW double counting   =      3619.32779991    -3963.26965677
  entropy T*S    EENTRO =        -0.00000000
  eigenvalues    EBANDS =      -126.93597418
  atomic energy  EATOM  =      4051.30602026
  Solvation  Ediel_sol  =         0.00000000
  ---------------------------------------------------
  free energy    TOTEN  =       -13.73415840 eV

  energy without entropy =      -13.73415840  energy(sigma->0) =      -13.73415840


--------------------------------------------------------------------------------------------------------




--------------------------------------- Iteration      1(   7)  ---------------------------------------


    POTLOK:  cpu time      0.0044: real time      0.0044
    SETDIJ:  cpu time      0.0016: real time      0.0016
     EDDAV:  cpu time      2.4924: real time      2.4926
       DOS:  cpu time      0.0004: real time      0.0004
    CHARGE:  cpu time      0.0159: real time      0.0159
    MIXING:  cpu time      0.0007: real time      0.0034
    --------------------------------------------
      LOOP:  cpu time      2.5153: real time      2.5182

 eigenvalue-minimisations  :  4032
 total energy-change (2. order) : 0.6436189E-01  (-0.2727125E-01)
 number of electron      35.9999977 magnetization 
 augmentation part       14.4337358 magnetization 

 Broyden mixing:
  rms(total) = 0.35759E+00    rms(broyden)= 0.35759E+00
  rms(prec ) = 0.37097E+00
  weight for this iteration     100.00

 eigenvalues of (default mixing * dielectric matrix)
  average eigenvalue GAMMA=   1.7117
  0.9361  2.4874

 Free energy of the ion-electron system (eV)
  ---------------------------------------------------
  alpha Z        PSCENC =       144.51722449
  Ewald energy   TEWEN  =     -2510.86064844
  -Hartree energ DENC   =     -1369.57384658
  -exchange      EXHF   =         0.00000000
  -V(xc)+E(xc)   XCENC  =       139.15471710
  PAW double counting   =      4003.90840035    -4352.77911230
  entropy T*S    EENTRO =        -0.00000000
  eigenvalues    EBANDS =      -119.34255139
  atomic energy  EATOM  =      4051.30602026
  Solvation  Ediel_sol  =         0.00000000
  ---------------------------------------------------
  free energy    TOTEN  =       -13.66979651 eV

  energy without entropy =      -13.66979651  energy(sigma->0) =      -13.66979651


--------------------------------------------------------------------------------------------------------




--------------------------------------- Iteration      1(   8)  ---------------------------------------


    POTLOK:  cpu time      0.0042: real time      0.0042
    SETDIJ:  cpu time      0.0015: real time      0.0015
     EDDAV:  cpu time      2.3898: real time      2.3901
       DOS:  cpu time      0.0005: real time      0.0004
    CHARGE:  cpu time      0.0163: real time      0.0163
    MIXING:  cpu time      0.0006: real time      0.0016
    --------------------------------------------
      LOOP:  cpu time      2.4129: real time      2.4142

 eigenvalue-minimisations  :  4032
 total energy-change (2. order) : 0.2015156E-02  (-0.3245322E-02)
 number of electron      35.9999977 magnetization 
 augmentation part       14.4479465 magnetization 

 Broyden mixing:
  rms(total) = 0.43192E-01    rms(broyden)= 0.43192E-01
  rms(prec ) = 0.54029E-01
  weight for this iteration     100.00

 eigenvalues of (default mixing * dielectric matrix)
  average eigenvalue GAMMA=   1.5237
  2.3904  0.8960  1.2847

 Free energy of the ion-electron system (eV)
  ---------------------------------------------------
  alpha Z        PSCENC =       144.51722449
  Ewald energy   TEWEN  =     -2510.86064844
  -Hartree energ DENC   =     -1367.21916315
  -exchange      EXHF   =         0.00000000
  -V(xc)+E(xc)   XCENC  =       139.20300422
  PAW double counting   =      4346.40068945    -4696.51148263
  entropy T*S    EENTRO =        -0.00000000
  eigenvalues    EBANDS =      -120.50342555
  atomic energy  EATOM  =      4051.30602026
  Solvation  Ediel_sol  =         0.00000000
  ---------------------------------------------------
  free energy    TOTEN  =       -13.66778135 eV

  energy without entropy =      -13.66778135  energy(sigma->0) =      -13.66778135


--------------------------------------------------------------------------------------------------------




--------------------------------------- Iteration      1(   9)  ---------------------------------------


    POTLOK:  cpu time      0.0047: real time      0.0047
    SETDIJ:  cpu time      0.0018: real time      0.0018
     EDDAV:  cpu time      2.6409: real time      2.6413
       DOS:  cpu time      0.0005: real time      0.0005
    CHARGE:  cpu time      0.0171: real time      0.0171
    MIXING:  cpu time      0.0004: real time      0.0004
    --------------------------------------------
      LOOP:  cpu time      2.6654: real time      2.6658

 eigenvalue-minimisations  :  4096
 total energy-change (2. order) : 0.6771208E-03  (-0.7468188E-03)
 number of electron      35.9999977 magnetization 
 augmentation part       14.4459048 magnetization 

 Broyden mixing:
  rms(total) = 0.12737E-01    rms(broyden)= 0.12737E-01
  rms(prec ) = 0.15026E-01
  weight for this iteration     100.00

 eigenvalues of (default mixing * dielectric matrix)
  average eigenvalue GAMMA=   1.8429
  2.5476  2.5476  0.9027  1.3738

 Free energy of the ion-electron system (eV)
  ---------------------------------------------------
  alpha Z        PSCENC =       144.51722449
  Ewald energy   TEWEN  =     -2510.86064844
  -Hartree energ DENC   =     -1366.86228249
  -exchange      EXHF   =         0.00000000
  -V(xc)+E(xc)   XCENC  =       139.17177159
  PAW double counting   =      4376.31008829    -4726.55430522
  entropy T*S    EENTRO =        -0.00000000
  eigenvalues    EBANDS =      -120.69497270
  atomic energy  EATOM  =      4051.30602026
  Solvation  Ediel_sol  =         0.00000000
  ---------------------------------------------------
  free energy    TOTEN  =       -13.66710423 eV

  energy without entropy =      -13.66710423  energy(sigma->0) =      -13.66710423


--------------------------------------------------------------------------------------------------------




--------------------------------------- Iteration      1(  10)  ---------------------------------------


    POTLOK:  cpu time      0.0043: real time      0.0043
    SETDIJ:  cpu time      0.0016: real time      0.0016
     EDDAV:  cpu time      2.6104: real time      2.6109
       DOS:  cpu time      0.0020: real time      0.0019
    CHARGE:  cpu time      0.0200: real time      0.0200
    MIXING:  cpu time      0.0006: real time      0.0006
    --------------------------------------------
      LOOP:  cpu time      2.6389: real time      2.6394

 eigenvalue-minimisations  :  3968
 total energy-change (2. order) :-0.3251543E-03  (-0.4718842E-04)
 number of electron      35.9999977 magnetization 
 augmentation part       14.4451092 magnetization 

 Broyden mixing:
  rms(total) = 0.14836E-02    rms(broyden)= 0.14836E-02
  rms(prec ) = 0.22392E-02
  weight for this iteration     100.00

 eigenvalues of (default mixing * dielectric matrix)
  average eigenvalue GAMMA=   1.7256
  2.8787  2.4819  1.4051  0.9255  0.9370

 Free energy of the ion-electron system (eV)
  ---------------------------------------------------
  alpha Z        PSCENC =       144.51722449
  Ewald energy   TEWEN  =     -2510.86064844
  -Hartree energ DENC   =     -1366.97604854
  -exchange      EXHF   =         0.00000000
  -V(xc)+E(xc)   XCENC  =       139.17653624
  PAW double counting   =      4363.62982217    -4713.96440128
  entropy T*S    EENTRO =        -0.00000000
  eigenvalues    EBANDS =      -120.49593429
  atomic energy  EATOM  =      4051.30602026
  Solvation  Ediel_sol  =         0.00000000
  ---------------------------------------------------
  free energy    TOTEN  =       -13.66742938 eV

  energy without entropy =      -13.66742938  energy(sigma->0) =      -13.66742938


--------------------------------------------------------------------------------------------------------




--------------------------------------- Iteration      1(  11)  ---------------------------------------


    POTLOK:  cpu time      0.0078: real time      0.0113
    SETDIJ:  cpu time      0.0022: real time      0.0022
     EDDAV:  cpu time      2.3054: real time      2.3056
       DOS:  cpu time      0.0008: real time      0.0008
    CHARGE:  cpu time      0.0174: real time      0.0174
    MIXING:  cpu time      0.0005: real time      0.0005
    --------------------------------------------
      LOOP:  cpu time      2.3340: real time      2.3378

 eigenvalue-minimisations  :  3776
 total energy-change (2. order) :-0.1212487E-04  (-0.2539393E-05)
 number of electron      35.9999977 magnetization 
 augmentation part       14.4455964 magnetization 

 Broyden mixing:
  rms(total) = 0.46366E-03    rms(broyden)= 0.46365E-03
  rms(prec ) = 0.65257E-03
  weight for this iteration     100.00

 eigenvalues of (default mixing * dielectric matrix)
  average eigenvalue GAMMA=   1.8844
  2.7288  2.7288  2.5329  0.9127  0.9888  1.4143

 Free energy of the ion-electron system (eV)
  ---------------------------------------------------
  alpha Z        PSCENC =       144.51722449
  Ewald energy   TEWEN  =     -2510.86064844
  -Hartree energ DENC   =     -1366.97013979
  -exchange      EXHF   =         0.00000000
  -V(xc)+E(xc)   XCENC  =       139.17726100
  PAW double counting   =      4363.00661347    -4713.33308808
  entropy T*S    EENTRO =        -0.00000000
  eigenvalues    EBANDS =      -120.51068441
  atomic energy  EATOM  =      4051.30602026
  Solvation  Ediel_sol  =         0.00000000
  ---------------------------------------------------
  free energy    TOTEN  =       -13.66744151 eV

  energy without entropy =      -13.66744151  energy(sigma->0) =      -13.66744151


--------------------------------------------------------------------------------------------------------




--------------------------------------- Iteration      1(  12)  ---------------------------------------


    POTLOK:  cpu time      0.0056: real time      0.0074
    SETDIJ:  cpu time      0.0017: real time      0.0017
     EDDAV:  cpu time      2.1669: real time      2.1673
       DOS:  cpu time      0.0006: real time      0.0006
    CHARGE:  cpu time      0.0177: real time      0.0177
    MIXING:  cpu time      0.0004: real time      0.0004
    --------------------------------------------
      LOOP:  cpu time      2.1930: real time      2.1951

 eigenvalue-minimisations  :  3584
 total energy-change (2. order) :-0.2802966E-05  (-0.4795903E-06)
 number of electron      35.9999977 magnetization 
 augmentation part       14.4456336 magnetization 

 Broyden mixing:
  rms(total) = 0.26046E-03    rms(broyden)= 0.26046E-03
  rms(prec ) = 0.27597E-03
  weight for this iteration     100.00

 eigenvalues of (default mixing * dielectric matrix)
  average eigenvalue GAMMA=   1.8500
  3.2125  2.6349  2.4816  0.9119  0.9993  1.4070  1.3028

 Free energy of the ion-electron system (eV)
  ---------------------------------------------------
  alpha Z        PSCENC =       144.51722449
  Ewald energy   TEWEN  =     -2510.86064844
  -Hartree energ DENC   =     -1366.99132586
  -exchange      EXHF   =         0.00000000
  -V(xc)+E(xc)   XCENC  =       139.17777654
  PAW double counting   =      4363.85334544    -4714.17170939
  entropy T*S    EENTRO =        -0.00000000
  eigenvalues    EBANDS =      -120.49812736
  atomic energy  EATOM  =      4051.30602026
  Solvation  Ediel_sol  =         0.00000000
  ---------------------------------------------------
  free energy    TOTEN  =       -13.66744431 eV

  energy without entropy =      -13.66744431  energy(sigma->0) =      -13.66744431


--------------------------------------------------------------------------------------------------------




--------------------------------------- Iteration      1(  13)  ---------------------------------------


    POTLOK:  cpu time      0.0047: real time      0.0050
    SETDIJ:  cpu time      0.0016: real time      0.0016
     EDDAV:  cpu time      2.3264: real time      2.3267
       DOS:  cpu time      0.0006: real time      0.0006
    --------------------------------------------
      LOOP:  cpu time      2.3334: real time      2.3339

 eigenvalue-minimisations  :  3776
 total energy-change (2. order) :-0.1155272E-06  (-0.1036162E-07)
 number of electron      35.9999977 magnetization 
 augmentation part       14.4456336 magnetization 

 Free energy of the ion-electron system (eV)
  ---------------------------------------------------
  alpha Z        PSCENC =       144.51722449
  Ewald energy   TEWEN  =     -2510.86064844
  -Hartree energ DENC   =     -1366.99527525
  -exchange      EXHF   =         0.00000000
  -V(xc)+E(xc)   XCENC  =       139.17792576
  PAW double counting   =      4363.45360350    -4713.77256374
  entropy T*S    EENTRO =        -0.00000000
  eigenvalues    EBANDS =      -120.49373101
  atomic energy  EATOM  =      4051.30602026
  Solvation  Ediel_sol  =         0.00000000
  ---------------------------------------------------
  free energy    TOTEN  =       -13.66744443 eV

  energy without entropy =      -13.66744443  energy(sigma->0) =      -13.66744443


--------------------------------------------------------------------------------------------------------




 average (electrostatic) potential at core
  the test charge radii are     0.9521  0.9698
  (the norm of the test charge is              1.0000)
       1 -36.1973       2 -36.1973       3 -88.5090       4 -88.5090
 
 
 
 E-fermi :   2.3683     XC(G=0):  -9.6631     alpha+bet : -8.1250

 Fermi energy:         2.3682702969

 k-point     1 :       0.0000    0.0000    0.0000
  band No.  band energies     occupation 
      1     -11.0195      2.00000
      2     -10.0714      2.00000
      3      -4.1739      2.00000
      4      -4.1593      2.00000
      5      -4.1593      2.00000
      6      -4.0759      2.00000
      7      -4.0759      2.00000
      8      -3.7116      2.00000
      9      -3.7116      2.00000
     10      -3.6325      2.00000
     11      -3.6325      2.00000
     12      -3.4767      2.00000
     13      -3.1650      2.00000
     14       1.3033      2.00000
     15       1.3033      2.00000
     16       2.1273      2.00000
     17       2.2058      2.00000
     18       2.2058      2.00000
     19       4.4286      0.00000
     20       5.3100      0.00000
     21       8.5093      0.00000
     22       8.5093      0.00000
     23       8.7822      0.00000
     24       9.8990      0.00000
     25       9.8990      0.00000
     26      11.4949      0.00000
     27      12.2456      0.00000
     28      12.2456      0.00000
     29      13.5022      0.00000
     30      14.4912      0.00000
     31      14.4912      0.00000
     32      14.8492      0.00000
     33      15.8233      0.00000
     34      18.0138      0.00000
     35      19.1089      0.00000
     36      19.1089      0.00000
     37      20.2861      0.00000
     38      21.1741      0.00000
     39      21.1741      0.00000
     40      23.1709      0.00000
     41      23.1709      0.00000
     42      23.8397      0.00000
     43      23.8397      0.00000
     44      26.0040      0.00000
     45      27.0709      0.00000
     46      27.1585      0.00000
     47      30.3152      0.00000
     48      30.3152      0.00000
     49      30.4584      0.00000
     50      30.4584      0.00000
     51      30.4605      0.00000
     52      31.1326      0.00000
     53      32.5622      0.00000
     54      32.5622      0.00000
     55      33.2689      0.00000
     56      33.2689      0.00000
     57      34.5314      0.00000
     58      35.1720      0.00000
     59      35.1721      0.00000
     60      36.0483      0.00000
     61      36.3388      0.00000
     62      37.6932      0.00000
     63      37.9722      0.00000
     64      37.9722      0.00000

 k-point     2 :       0.1667    0.0000    0.0000
  band No.  band energies     occupation 
      1     -10.8351      2.00000
      2      -9.9716      2.00000
      3      -4.1738      2.00000
      4      -4.1362      2.00000
      5      -4.1247      2.00000
      6      -4.0523      2.00000
      7      -4.0236      2.00000
      8      -3.7356      2.00000
      9      -3.7106      2.00000
     10      -3.7072      2.00000
     11      -3.6245      2.00000
     12      -3.4197      2.00000
     13      -2.9028      2.00000
     14       0.0798      2.00000
     15       0.8885      2.00000
     16       0.9054      2.00000
     17       1.8785      2.00000
     18       1.9792      2.00000
     19       5.5635      0.00000
     20       6.2579      0.00000
     21       7.9997      0.00000
     22       8.9702      0.00000
     23       9.0166      0.00000
     24       9.8171      0.00000
     25      10.4983      0.00000
     26      10.7107      0.00000
     27      11.3409      0.00000
     28      11.9668      0.00000
     29      14.8496      0.00000
     30      15.3911      0.00000
     31      15.5986      0.00000
     32      16.6851      0.00000
     33      17.0278      0.00000
     34      17.4804      0.00000
     35      18.1054      0.00000
     36      18.9855      0.00000
     37      20.4136      0.00000
     38      20.4760      0.00000
     39      22.0772      0.00000
     40      22.9016      0.00000
     41      23.8255      0.00000
     42      24.1033      0.00000
     43      25.1062      0.00000
     44      25.2447      0.00000
     45      26.1501      0.00000
     46      27.7810      0.00000
     47      28.0259      0.00000
     48      28.0779      0.00000
     49      28.7737      0.00000
     50      29.7084      0.00000
     51      30.8255      0.00000
     52      31.5209      0.00000
     53      32.3481      0.00000
     54      32.6970      0.00000
     55      33.7134      0.00000
     56      34.2673      0.00000
     57      34.3691      0.00000
     58      34.5328      0.00000
     59      35.1796      0.00000
     60      35.2301      0.00000
     61      37.2275      0.00000
     62      38.2337      0.00000
     63      38.5784      0.00000
     64      38.5803      0.00000

 k-point     3 :       0.3333   -0.0000    0.0000
  band No.  band energies     occupation 
      1     -10.3922      2.00000
      2      -9.7934      2.00000
      3      -4.1655      2.00000
      4      -4.0759      2.00000
      5      -4.0715      2.00000
      6      -3.9260      2.00000
      7      -3.9123      2.00000
      8      -3.7960      2.00000
      9      -3.7159      2.00000
     10      -3.6792      2.00000
     11      -3.6076      2.00000
     12      -3.3341      2.00000
     13      -2.5168      2.00000
     14      -1.3830      2.00000
     15      -0.7938      2.00000
     16       0.2456      2.00000
     17       1.1379      2.00000
     18       1.5300      2.00000
     19       6.0810      0.00000
     20       6.4094      0.00000
     21       7.8033      0.00000
     22       8.9577      0.00000
     23       9.2174      0.00000
     24      10.7124      0.00000
     25      10.8853      0.00000
     26      11.9320      0.00000
     27      12.6063      0.00000
     28      13.2709      0.00000
     29      14.0896      0.00000
     30      15.5482      0.00000
     31      16.0273      0.00000
     32      17.4172      0.00000
     33      18.1934      0.00000
     34      18.5474      0.00000
     35      19.3391      0.00000
     36      20.1072      0.00000
     37      21.1036      0.00000
     38      21.1136      0.00000
     39      21.3784      0.00000
     40      22.1168      0.00000
     41      22.4559      0.00000
     42      22.8206      0.00000
     43      24.1163      0.00000
     44      26.4195      0.00000
     45      26.6912      0.00000
     46      26.9649      0.00000
     47      27.9412      0.00000
     48      28.7920      0.00000
     49      29.3594      0.00000
     50      29.4193      0.00000
     51      29.5192      0.00000
     52      30.9670      0.00000
     53      31.6415      0.00000
     54      32.1078      0.00000
     55      33.0554      0.00000
     56      33.3041      0.00000
     57      33.8527      0.00000
     58      34.1382      0.00000
     59      34.3667      0.00000
     60      35.2306      0.00000
     61      35.6289      0.00000
     62      35.7092      0.00000
     63      37.4368      0.00000
     64      37.5281      0.00000

 k-point     4 :       0.5000   -0.0000    0.0000
  band No.  band energies     occupation 
      1     -10.0858      2.00000
      2      -9.7572      2.00000
      3      -4.1515      2.00000
      4      -4.0550      2.00000
      5      -3.9362      2.00000
      6      -3.9120      2.00000
      7      -3.8561      2.00000
      8      -3.7903      2.00000
      9      -3.6445      2.00000
     10      -3.5956      2.00000
     11      -3.5223      2.00000
     12      -3.5003      2.00000
     13      -2.6361      2.00000
     14      -1.9290      2.00000
     15      -1.0878      2.00000
     16      -0.0488      2.00000
     17       0.5075      2.00000
     18       1.3155      2.00000
     19       5.8631      0.00000
     20       6.4688      0.00000
     21       7.3212      0.00000
     22       9.1122      0.00000
     23       9.6299      0.00000
     24      10.5826      0.00000
     25      11.2864      0.00000
     26      13.7405      0.00000
     27      14.2292      0.00000
     28      14.7630      0.00000
     29      14.9886      0.00000
     30      15.7087      0.00000
     31      15.9746      0.00000
     32      16.3054      0.00000
     33      16.8104      0.00000
     34      17.2112      0.00000
     35      18.0237      0.00000
     36      18.5542      0.00000
     37      21.3546      0.00000
     38      22.3350      0.00000
     39      22.7523      0.00000
     40      24.0875      0.00000
     41      24.5738      0.00000
     42      24.6260      0.00000
     43      24.8492      0.00000
     44      25.0349      0.00000
     45      26.0299      0.00000
     46      26.7607      0.00000
     47      27.0439      0.00000
     48      28.0562      0.00000
     49      28.1930      0.00000
     50      28.4048      0.00000
     51      29.6643      0.00000
     52      30.6368      0.00000
     53      31.4183      0.00000
     54      31.6394      0.00000
     55      32.0133      0.00000
     56      33.7704      0.00000
     57      34.4217      0.00000
     58      34.6113      0.00000
     59      34.9651      0.00000
     60      35.1042      0.00000
     61      35.5051      0.00000
     62      35.5074      0.00000
     63      35.6855      0.00000
     64      36.2051      0.00000

 k-point     5 :       0.1667    0.1667    0.0000
  band No.  band energies     occupation 
      1     -10.5178      2.00000
      2      -9.8320      2.00000
      3      -4.1327      2.00000
      4      -4.1127      2.00000
      5      -4.0800      2.00000
      6      -4.0007      2.00000
      7      -3.9304      2.00000
      8      -3.7553      2.00000
      9      -3.7303      2.00000
     10      -3.7098      2.00000
     11      -3.6117      2.00000
     12      -3.3625      2.00000
     13      -2.5474      2.00000
     14      -0.8513      2.00000
     15      -0.5128      2.00000
     16       0.1922      2.00000
     17       1.3496      2.00000
     18       1.4131      2.00000
     19       6.6067      0.00000
     20       7.2163      0.00000
     21       7.8587      0.00000
     22       8.0576      0.00000
     23       9.4389      0.00000
     24       9.7841      0.00000
     25      10.7819      0.00000
     26      11.1522      0.00000
     27      12.4456      0.00000
     28      12.5888      0.00000
     29      14.9933      0.00000
     30      15.2426      0.00000
     31      16.7912      0.00000
     32      17.1941      0.00000
     33      18.1071      0.00000
     34      18.5416      0.00000
     35      18.5688      0.00000
     36      18.8568      0.00000
     37      20.5454      0.00000
     38      21.0282      0.00000
     39      21.3313      0.00000
     40      22.5703      0.00000
     41      24.1115      0.00000
     42      24.3530      0.00000
     43      24.7020      0.00000
     44      25.7314      0.00000
     45      26.1935      0.00000
     46      26.6660      0.00000
     47      26.8344      0.00000
     48      27.1517      0.00000
     49      29.0862      0.00000
     50      30.2419      0.00000
     51      30.2443      0.00000
     52      31.3213      0.00000
     53      31.7100      0.00000
     54      32.4625      0.00000
     55      32.7007      0.00000
     56      33.5186      0.00000
     57      34.3833      0.00000
     58      34.3979      0.00000
     59      35.3863      0.00000
     60      35.4556      0.00000
     61      35.7715      0.00000
     62      36.9527      0.00000
     63      37.2919      0.00000
     64      38.1627      0.00000

 k-point     6 :       0.3333    0.1667    0.0000
  band No.  band energies     occupation 
      1     -10.1001      2.00000
      2      -9.7500      2.00000
      3      -4.1319      2.00000
      4      -4.0419      2.00000
      5      -3.9433      2.00000
      6      -3.8840      2.00000
      7      -3.8299      2.00000
      8      -3.7924      2.00000
      9      -3.7098      2.00000
     10      -3.6807      2.00000
     11      -3.5731      2.00000
     12      -3.3003      2.00000
     13      -2.5444      2.00000
     14      -1.6741      2.00000
     15      -1.0516      2.00000
     16      -0.6048      2.00000
     17       0.5992      2.00000
     18       0.7531      2.00000
     19       6.9379      0.00000
     20       7.1673      0.00000
     21       7.3256      0.00000
     22       9.2441      0.00000
     23       9.3288      0.00000
     24      10.7520      0.00000
     25      11.3618      0.00000
     26      11.8180      0.00000
     27      13.2696      0.00000
     28      13.9225      0.00000
     29      14.9668      0.00000
     30      15.8350      0.00000
     31      16.1901      0.00000
     32      16.3585      0.00000
     33      16.6989      0.00000
     34      18.5669      0.00000
     35      19.2319      0.00000
     36      19.6710      0.00000
     37      21.0565      0.00000
     38      22.2820      0.00000
     39      22.6246      0.00000
     40      23.0851      0.00000
     41      23.6570      0.00000
     42      24.3873      0.00000
     43      24.8500      0.00000
     44      25.5028      0.00000
     45      26.4155      0.00000
     46      26.8597      0.00000
     47      27.7512      0.00000
     48      27.9952      0.00000
     49      28.5803      0.00000
     50      29.5460      0.00000
     51      30.0261      0.00000
     52      30.3777      0.00000
     53      30.7240      0.00000
     54      31.4310      0.00000
     55      32.0131      0.00000
     56      32.7487      0.00000
     57      33.1807      0.00000
     58      33.7028      0.00000
     59      34.2812      0.00000
     60      35.0427      0.00000
     61      35.8122      0.00000
     62      36.2525      0.00000
     63      36.3535      0.00000
     64      36.8550      0.00000

 k-point     7 :       0.3333    0.3333    0.0000
  band No.  band energies     occupation 
      1      -9.8394      2.00000
      2      -9.8394      2.00000
      3      -4.1424      2.00000
      4      -3.9449      2.00000
      5      -3.9449      2.00000
      6      -3.8246      2.00000
      7      -3.7516      2.00000
      8      -3.7516      2.00000
      9      -3.6996      2.00000
     10      -3.6800      2.00000
     11      -3.4382      2.00000
     12      -3.4382      2.00000
     13      -2.1217      2.00000
     14      -2.1217      2.00000
     15      -1.6658      2.00000
     16      -0.1322      2.00000
     17      -0.1322      2.00000
     18       0.1085      2.00000
     19       6.4642      0.00000
     20       8.1253      0.00000
     21       8.1253      0.00000
     22      10.0738      0.00000
     23      10.2343      0.00000
     24      10.2343      0.00000
     25      11.7187      0.00000
     26      11.7187      0.00000
     27      12.4428      0.00000
     28      13.6092      0.00000
     29      13.6092      0.00000
     30      14.1320      0.00000
     31      15.6510      0.00000
     32      17.9243      0.00000
     33      19.2102      0.00000
     34      19.2102      0.00000
     35      19.6122      0.00000
     36      20.5536      0.00000
     37      20.5536      0.00000
     38      21.6823      0.00000
     39      21.6823      0.00000
     40      22.1198      0.00000
     41      24.6769      0.00000
     42      24.6769      0.00000
     43      24.9072      0.00000
     44      25.9472      0.00000
     45      27.4789      0.00000
     46      27.4789      0.00000
     47      28.3296      0.00000
     48      29.0930      0.00000
     49      29.0930      0.00000
     50      29.7372      0.00000
     51      29.9774      0.00000
     52      29.9774      0.00000
     53      30.4437      0.00000
     54      31.4144      0.00000
     55      31.4144      0.00000
     56      31.7972      0.00000
     57      32.4401      0.00000
     58      32.4401      0.00000
     59      33.2107      0.00000
     60      33.2107      0.00000
     61      34.0902      0.00000
     62      34.7129      0.00000
     63      34.7525      0.00000
     64      34.7525      0.00000

 k-point     8 :       0.0000    0.0000    0.2500
  band No.  band energies     occupation 
      1     -10.8996      2.00000
      2     -10.2333      2.00000
      3      -4.1810      2.00000
      4      -4.1509      2.00000
      5      -4.1509      2.00000
      6      -4.0922      2.00000
      7      -4.0922      2.00000
      8      -3.9393      2.00000
      9      -3.6971      2.00000
     10      -3.6971      2.00000
     11      -3.6410      2.00000
     12      -3.6410      2.00000
     13      -2.1969      2.00000
     14       1.0264      2.00000
     15       1.4255      2.00000
     16       1.4255      2.00000
     17       2.0623      2.00000
     18       2.0623      2.00000
     19       5.3257      0.00000
     20       5.4640      0.00000
     21       8.4747      0.00000
     22       8.6056      0.00000
     23       8.6056      0.00000
     24       9.5486      0.00000
     25       9.5486      0.00000
     26      10.6112      0.00000
     27      12.8256      0.00000
     28      12.8256      0.00000
     29      13.5939      0.00000
     30      15.0282      0.00000
     31      15.0282      0.00000
     32      15.4270      0.00000
     33      16.3667      0.00000
     34      17.4182      0.00000
     35      17.4182      0.00000
     36      18.1527      0.00000
     37      20.4082      0.00000
     38      20.4082      0.00000
     39      22.0720      0.00000
     40      23.2611      0.00000
     41      23.5355      0.00000
     42      23.5355      0.00000
     43      24.1584      0.00000
     44      26.6897      0.00000
     45      26.6897      0.00000
     46      28.6601      0.00000
     47      30.0021      0.00000
     48      30.0021      0.00000
     49      30.3589      0.00000
     50      30.4900      0.00000
     51      30.4900      0.00000
     52      32.5019      0.00000
     53      32.5019      0.00000
     54      32.7993      0.00000
     55      32.7993      0.00000
     56      33.3830      0.00000
     57      33.3830      0.00000
     58      33.9566      0.00000
     59      34.7192      0.00000
     60      35.9487      0.00000
     61      36.8566      0.00000
     62      36.8566      0.00000
     63      36.8617      0.00000
     64      37.7386      0.00000

 k-point     9 :       0.1667    0.0000    0.2500
  band No.  band energies     occupation 
      1     -10.7234      2.00000
      2     -10.1153      2.00000
      3      -4.1880      2.00000
      4      -4.1282      2.00000
      5      -4.1132      2.00000
      6      -4.0733      2.00000
      7      -4.0419      2.00000
      8      -3.9212      2.00000
      9      -3.7102      2.00000
     10      -3.6964      2.00000
     11      -3.6355      2.00000
     12      -3.6064      2.00000
     13      -2.0752      2.00000
     14       0.2157      2.00000
     15       0.4163      2.00000
     16       1.0467      2.00000
     17       1.5598      2.00000
     18       1.8018      2.00000
     19       6.0086      0.00000
     20       6.4361      0.00000
     21       8.0139      0.00000
     22       8.5532      0.00000
     23       9.1512      0.00000
     24       9.2143      0.00000
     25      10.3311      0.00000
     26      10.6184      0.00000
     27      11.9250      0.00000
     28      12.5044      0.00000
     29      15.0416      0.00000
     30      15.3516      0.00000
     31      15.3608      0.00000
     32      15.7705      0.00000
     33      17.6320      0.00000
     34      17.7877      0.00000
     35      17.8179      0.00000
     36      19.5435      0.00000
     37      20.1038      0.00000
     38      20.9690      0.00000
     39      21.4473      0.00000
     40      22.8693      0.00000
     41      23.5079      0.00000
     42      24.4750      0.00000
     43      25.2092      0.00000
     44      25.8044      0.00000
     45      26.2646      0.00000
     46      26.9261      0.00000
     47      27.2790      0.00000
     48      28.3539      0.00000
     49      28.9124      0.00000
     50      29.1225      0.00000
     51      31.4567      0.00000
     52      31.6511      0.00000
     53      32.3069      0.00000
     54      33.2931      0.00000
     55      33.4474      0.00000
     56      33.9654      0.00000
     57      34.2320      0.00000
     58      35.2642      0.00000
     59      35.2771      0.00000
     60      36.0335      0.00000
     61      36.8407      0.00000
     62      37.1552      0.00000
     63      37.8468      0.00000
     64      38.4900      0.00000

 k-point    10 :       0.3333   -0.0000    0.2500
  band No.  band energies     occupation 
      1     -10.3081      2.00000
      2      -9.8842      2.00000
      3      -4.1819      2.00000
      4      -4.1009      2.00000
      5      -4.0500      2.00000
      6      -3.9389      2.00000
      7      -3.9371      2.00000
      8      -3.8794      2.00000
      9      -3.6957      2.00000
     10      -3.6708      2.00000
     11      -3.6211      2.00000
     12      -3.4961      2.00000
     13      -2.2708      2.00000
     14      -1.3144      2.00000
     15      -0.6426      2.00000
     16       0.4125      2.00000
     17       1.1601      2.00000
     18       1.3125      2.00000
     19       5.7879      0.00000
     20       6.4350      0.00000
     21       7.9267      0.00000
     22       8.4229      0.00000
     23       9.6626      0.00000
     24      10.3844      0.00000
     25      11.0299      0.00000
     26      12.0056      0.00000
     27      12.1871      0.00000
     28      13.5005      0.00000
     29      14.5901      0.00000
     30      15.3935      0.00000
     31      15.5650      0.00000
     32      17.5796      0.00000
     33      18.9389      0.00000
     34      18.9951      0.00000
     35      19.7304      0.00000
     36      20.1950      0.00000
     37      20.7964      0.00000
     38      20.9685      0.00000
     39      21.5543      0.00000
     40      21.9149      0.00000
     41      22.1650      0.00000
     42      24.2189      0.00000
     43      24.2391      0.00000
     44      24.8916      0.00000
     45      25.0365      0.00000
     46      26.5038      0.00000
     47      27.9215      0.00000
     48      28.9723      0.00000
     49      29.6933      0.00000
     50      29.7317      0.00000
     51      30.3132      0.00000
     52      30.8894      0.00000
     53      31.3707      0.00000
     54      31.7025      0.00000
     55      32.5427      0.00000
     56      32.8459      0.00000
     57      34.0934      0.00000
     58      34.2385      0.00000
     59      34.9900      0.00000
     60      34.9958      0.00000
     61      35.4851      0.00000
     62      36.1884      0.00000
     63      37.5683      0.00000
     64      37.8430      0.00000

 k-point    11 :       0.5000   -0.0000    0.2500
  band No.  band energies     occupation 
      1     -10.0334      2.00000
      2      -9.8000      2.00000
      3      -4.1696      2.00000
      4      -4.0492      2.00000
      5      -4.0273      2.00000
      6      -3.8952      2.00000
      7      -3.8853      2.00000
      8      -3.7883      2.00000
      9      -3.6412      2.00000
     10      -3.6091      2.00000
     11      -3.4888      2.00000
     12      -3.4702      2.00000
     13      -2.7987      2.00000
     14      -2.2423      2.00000
     15      -0.4440      2.00000
     16       0.1293      2.00000
     17       0.7863      2.00000
     18       1.0841      2.00000
     19       5.6832      0.00000
     20       5.9969      0.00000
     21       7.9179      0.00000
     22       8.1709      0.00000
     23       9.6415      0.00000
     24      10.3037      0.00000
     25      12.0499      0.00000
     26      12.8723      0.00000
     27      14.1713      0.00000
     28      15.2187      0.00000
     29      15.7847      0.00000
     30      15.9098      0.00000
     31      15.9729      0.00000
     32      16.3989      0.00000
     33      17.2107      0.00000
     34      17.4700      0.00000
     35      17.8621      0.00000
     36      18.4291      0.00000
     37      21.6976      0.00000
     38      21.9497      0.00000
     39      22.3604      0.00000
[...]
     49      28.4626      0.00000
     50      28.4626      0.00000
     51      30.3155      0.00000
     52      30.3155      0.00000
     53      31.0717      0.00000
     54      31.0717      0.00000
     55      31.4313      0.00000
     56      31.4313      0.00000
     57      32.7825      0.00000
     58      32.7825      0.00000
     59      34.2721      0.00000
     60      34.2721      0.00000
     61      35.4290      0.00000
     62      35.4290      0.00000
     63      35.4692      0.00000
     64      35.4692      0.00000

 k-point    18 :       0.5000   -0.0000    0.5000
  band No.  band energies     occupation 
      1     -10.0635      2.00000
      2     -10.0635      2.00000
      3      -4.3281      2.00000
      4      -4.3281      2.00000
      5      -4.1551      2.00000
      6      -4.1551      2.00000
      7      -4.0417      2.00000
      8      -4.0417      2.00000
      9      -3.8549      2.00000
     10      -3.8549      2.00000
     11      -3.6948      2.00000
     12      -3.6948      2.00000
     13      -2.8344      2.00000
     14      -2.8344      2.00000
     15       0.3328      2.00000
     16       0.3328      2.00000
     17       0.3563      2.00000
     18       0.3563      2.00000
     19       5.4294      0.00000
     20       5.4294      0.00000
     21       7.1351      0.00000
     22       7.1351      0.00000
     23      10.6611      0.00000
     24      10.6611      0.00000
     25      10.9748      0.00000
     26      10.9748      0.00000
     27      14.0160      0.00000
     28      14.0160      0.00000
     29      15.4996      0.00000
     30      15.4996      0.00000
     31      16.3365      0.00000
     32      16.3365      0.00000
     33      17.6641      0.00000
     34      17.6641      0.00000
     35      18.2079      0.00000
     36      18.2079      0.00000
     37      19.3732      0.00000
     38      19.3732      0.00000
     39      22.8073      0.00000
     40      22.8073      0.00000
     41      23.2758      0.00000
     42      23.2758      0.00000
     43      25.5187      0.00000
     44      25.5187      0.00000
     45      26.3669      0.00000
     46      26.3669      0.00000
     47      26.5254      0.00000
     48      26.5254      0.00000
     49      27.2108      0.00000
     50      27.2108      0.00000
     51      28.5403      0.00000
     52      28.5403      0.00000
     53      29.0255      0.00000
     54      29.0255      0.00000
     55      31.9515      0.00000
     56      31.9515      0.00000
     57      33.4163      0.00000
     58      33.4163      0.00000
     59      33.5578      0.00000
     60      33.5578      0.00000
     61      34.7064      0.00000
     62      34.7064      0.00000
     63      36.5678      0.00000
     64      36.5678      0.00000

 k-point    19 :       0.1667    0.1667    0.5000
  band No.  band energies     occupation 
      1     -10.3204      2.00000
      2     -10.3204      2.00000
      3      -4.3169      2.00000
      4      -4.3169      2.00000
      5      -4.2265      2.00000
      6      -4.2265      2.00000
      7      -4.1892      2.00000
      8      -4.1892      2.00000
      9      -3.8860      2.00000
     10      -3.8860      2.00000
     11      -3.8523      2.00000
     12      -3.8523      2.00000
     13      -1.6226      2.00000
     14      -1.6226      2.00000
     15       0.2620      2.00000
     16       0.2620      2.00000
     17       0.4759      2.00000
     18       0.4759      2.00000
     19       6.5223      0.00000
     20       6.5223      0.00000
     21       7.6747      0.00000
     22       7.6747      0.00000
     23       8.9479      0.00000
     24       8.9479      0.00000
     25      10.2343      0.00000
     26      10.2343      0.00000
     27      12.9887      0.00000
     28      12.9887      0.00000
     29      13.9524      0.00000
     30      13.9524      0.00000
     31      16.4516      0.00000
     32      16.4516      0.00000
     33      18.9089      0.00000
     34      18.9089      0.00000
     35      19.1211      0.00000
     36      19.1211      0.00000
     37      20.2467      0.00000
     38      20.2467      0.00000
     39      21.1914      0.00000
     40      21.1914      0.00000
     41      22.2614      0.00000
     42      22.2614      0.00000
     43      23.8230      0.00000
     44      23.8230      0.00000
     45      25.6287      0.00000
     46      25.6287      0.00000
     47      26.8681      0.00000
     48      26.8681      0.00000
     49      28.4002      0.00000
     50      28.4002      0.00000
     51      29.8151      0.00000
     52      29.8151      0.00000
     53      31.0479      0.00000
     54      31.0479      0.00000
     55      31.8911      0.00000
     56      31.8911      0.00000
     57      33.8150      0.00000
     58      33.8150      0.00000
     59      34.6950      0.00000
     60      34.6950      0.00000
     61      36.6657      0.00000
     62      36.6657      0.00000
     63      37.3380      0.00000
     64      37.3380      0.00000

 k-point    20 :       0.3333    0.1667    0.5000
  band No.  band energies     occupation 
      1     -10.0675      2.00000
      2     -10.0675      2.00000
      3      -4.2827      2.00000
      4      -4.2827      2.00000
      5      -4.1645      2.00000
      6      -4.1645      2.00000
      7      -4.0727      2.00000
      8      -4.0727      2.00000
      9      -3.8833      2.00000
     10      -3.8833      2.00000
     11      -3.7144      2.00000
     12      -3.7144      2.00000
     13      -2.5559      2.00000
     14      -2.5559      2.00000
     15      -0.3372      2.00000
     16      -0.3372      2.00000
     17       0.4995      2.00000
     18       0.4995      2.00000
     19       6.0977      0.00000
     20       6.0977      0.00000
     21       7.7909      0.00000
     22       7.7909      0.00000
     23       9.3753      0.00000
     24       9.3753      0.00000
     25      10.9102      0.00000
     26      10.9102      0.00000
     27      13.4590      0.00000
     28      13.4590      0.00000
     29      15.8062      0.00000
     30      15.8062      0.00000
     31      16.3481      0.00000
     32      16.3481      0.00000
     33      17.4772      0.00000
     34      17.4772      0.00000
     35      19.4275      0.00000
     36      19.4275      0.00000
     37      20.3842      0.00000
     38      20.3842      0.00000
     39      21.6363      0.00000
     40      21.6363      0.00000
     41      23.1681      0.00000
     42      23.1681      0.00000
     43      24.2310      0.00000
     44      24.2310      0.00000
     45      25.8464      0.00000
     46      25.8464      0.00000
     47      26.9287      0.00000
     48      26.9287      0.00000
     49      27.7387      0.00000
     50      27.7387      0.00000
     51      29.5995      0.00000
     52      29.5995      0.00000
     53      30.1553      0.00000
     54      30.1553      0.00000
     55      31.0956      0.00000
     56      31.0956      0.00000
     57      33.0613      0.00000
     58      33.0613      0.00000
     59      33.5450      0.00000
     60      33.5450      0.00000
     61      34.6502      0.00000
     62      34.6502      0.00000
     63      36.2828      0.00000
     64      36.2828      0.00000

 k-point    21 :       0.3333    0.3333    0.5000
  band No.  band energies     occupation 
      1      -9.9810      2.00000
      2      -9.9810      2.00000
      3      -4.2191      2.00000
      4      -4.2191      2.00000
      5      -4.1877      2.00000
      6      -4.1877      2.00000
      7      -3.9892      2.00000
      8      -3.9892      2.00000
      9      -3.9268      2.00000
     10      -3.9268      2.00000
     11      -3.5802      2.00000
     12      -3.5802      2.00000
     13      -2.7172      2.00000
     14      -2.7172      2.00000
     15      -1.0147      2.00000
     16      -1.0147      2.00000
     17       0.6055      2.00000
     18       0.6055      2.00000
     19       6.3478      0.00000
     20       6.3478      0.00000
     21       8.2521      0.00000
     22       8.2521      0.00000
     23       9.1732      0.00000
     24       9.1732      0.00000
     25      11.6202      0.00000
     26      11.6202      0.00000
     27      12.0850      0.00000
     28      12.0850      0.00000
     29      15.6314      0.00000
     30      15.6314      0.00000
     31      17.0835      0.00000
     32      17.0835      0.00000
     33      18.4627      0.00000
     34      18.4627      0.00000
     35      19.7943      0.00000
     36      19.7943      0.00000
     37      19.9698      0.00000
     38      19.9698      0.00000
     39      22.0460      0.00000
     40      22.0460      0.00000
     41      22.4083      0.00000
     42      22.4083      0.00000
     43      23.9135      0.00000
     44      23.9135      0.00000
     45      26.4122      0.00000
     46      26.4122      0.00000
     47      27.6881      0.00000
     48      27.6881      0.00000
     49      27.9065      0.00000
     50      27.9065      0.00000
     51      29.1000      0.00000
     52      29.1000      0.00000
     53      30.4233      0.00000
     54      30.4233      0.00000
     55      30.8251      0.00000
     56      30.8251      0.00000
     57      31.4656      0.00000
     58      31.4656      0.00000
     59      34.1337      0.00000
     60      34.1337      0.00000
     61      35.1001      0.00000
     62      35.1001      0.00000
     63      35.5339      0.00000
     64      35.5339      0.00000


--------------------------------------------------------------------------------------------------------


 soft charge-density along one line, spin component           1
         0         1         2         3         4         5         6         7         8         9
 total charge-density along one line
 
 pseudopotential strength for first ion, spin component:           1
 -9.912   0.000   0.000  -0.000  -0.000 -10.270   0.000   0.000
  0.000  -9.912   0.000   0.000  -0.000   0.000 -10.270   0.000
  0.000   0.000  -9.911  -0.000   0.000   0.000   0.000 -10.269
 -0.000   0.000  -0.000  -9.912  -0.000  -0.000   0.000  -0.000
 -0.000  -0.000   0.000  -0.000  -9.912  -0.000  -0.000   0.000
-10.270   0.000   0.000  -0.000  -0.000 -10.553   0.000   0.000
  0.000 -10.270   0.000   0.000  -0.000   0.000 -10.553   0.000
  0.000   0.000 -10.269  -0.000   0.000   0.000   0.000 -10.553
 -0.000   0.000  -0.000 -10.270  -0.000  -0.000   0.000  -0.000
 -0.000  -0.000   0.000  -0.000 -10.270  -0.000  -0.000   0.000
 -0.000  -0.000  -0.000   0.000  -0.000  -0.000  -0.000  -0.000
 -0.000  -0.000  -0.000   0.000  -0.000  -0.000  -0.000  -0.000
 -0.000   0.002  -0.000   0.000  -0.002  -0.000   0.001  -0.000
  0.000  -0.000  -0.002   0.000   0.000   0.000  -0.000  -0.002
 -0.002   0.000   0.000   0.002   0.000  -0.002   0.000   0.000
 -0.000   0.002  -0.000   0.000  -0.002  -0.000   0.002  -0.000
  0.000  -0.000  -0.002   0.000   0.000   0.000  -0.000  -0.002
 -0.002   0.000   0.000   0.002   0.000  -0.002   0.000   0.000
 total augmentation occupancy for first ion, spin component:           1
  3.491   0.000   0.000  -0.656   0.000  -1.475   0.000   0.000   0.651   0.000  -0.000   0.000   0.000   0.000  -0.534   0.000
  0.000   3.027   0.000   0.000  -0.656   0.000  -1.015  -0.000   0.000   0.651   0.000  -0.000   0.381  -0.000   0.000  -0.056
  0.000   0.000   3.947   0.000  -0.000   0.000  -0.000  -1.924   0.000   0.000   0.008  -0.000   0.000  -0.649   0.000  -0.000
 -0.656   0.000   0.000   3.027   0.000   0.651   0.000   0.000  -1.015   0.000   0.000   0.000   0.000  -0.000   0.381   0.000
  0.000  -0.656  -0.000   0.000   3.491   0.000   0.651   0.000   0.000  -1.475  -0.000   0.000  -0.534   0.000   0.000   0.078
 -1.475   0.000   0.000   0.651   0.000   1.452   0.000  -0.000  -0.646   0.000   0.000   0.000   0.000   0.000   0.517   0.000
  0.000  -1.015  -0.000   0.000   0.651   0.000   0.996   0.000   0.000  -0.646  -0.000  -0.000  -0.369   0.000   0.000   0.063
  0.000  -0.000  -1.924   0.000   0.000   0.000   0.000   1.894   0.000  -0.000  -0.008   0.001  -0.000   0.628   0.000   0.000
  0.651   0.000  -0.000  -1.015   0.000  -0.646   0.000   0.000   0.996   0.000   0.000  -0.000   0.000   0.000  -0.369   0.000
  0.000   0.651   0.000   0.000  -1.475   0.000  -0.646  -0.000   0.000   1.452   0.000  -0.000   0.517  -0.000   0.000  -0.088
 -0.000   0.000   0.008   0.000  -0.000   0.000  -0.000  -0.008   0.000   0.000   2.415  -0.552   0.000  -0.003   0.000   0.000
  0.000  -0.000  -0.000   0.000   0.000   0.000  -0.000   0.001   0.000  -0.000  -0.552   0.151   0.000   0.001   0.000   0.000
  0.000   0.381   0.000   0.000  -0.534   0.000  -0.369  -0.000   0.000   0.517   0.000  -0.000   0.344   0.000   0.000  -0.059
 -0.000   0.000  -0.649   0.000   0.000   0.000   0.000   0.628   0.000  -0.000  -0.003   0.001   0.000   0.343   0.000   0.000
 -0.534   0.000   0.000   0.381   0.000   0.517   0.000   0.000  -0.369   0.000   0.000   0.000   0.000  -0.000   0.344   0.000
  0.000  -0.056  -0.000   0.000   0.078   0.000   0.063   0.000   0.000  -0.088   0.000   0.000  -0.059   0.000   0.000   0.012
  0.000  -0.000   0.095   0.000  -0.000   0.000   0.000  -0.107  -0.000   0.000   0.001  -0.000  -0.000  -0.059   0.000   0.000
  0.078   0.000   0.000  -0.056   0.000  -0.088   0.000   0.000   0.063   0.000   0.000   0.000   0.000   0.000  -0.059  -0.000


------------------------ aborting loop because EDIFF is reached ----------------------------------------


    CHARGE:  cpu time      0.0187: real time      0.0187
    FORLOC:  cpu time      0.0002: real time      0.0002
    FORNL :  cpu time      0.0210: real time      0.0210
    STRESS:  cpu time      0.2546: real time      0.2546
    FORCOR:  cpu time      0.0033: real time      0.0033
    FORHAR:  cpu time      0.0007: real time      0.0007
    MIXING:  cpu time      0.0004: real time      0.0004
    OFIELD:  cpu time      0.0000: real time      0.0000

  FORCE on cell =-STRESS in cart. coord.  units (eV):
  Direction    XX          YY          ZZ          XY          YZ          ZX
  --------------------------------------------------------------------------------------
  Alpha Z   139.69924   139.69924   139.69924
  Ewald    -837.11560  -837.11560  -808.41370    -0.00000    -0.00000    -0.00000
  Hartree   454.23800   454.23800   474.99927    -0.00000     0.00000    -0.00000
  E(xc)    -187.02171  -187.02171  -186.98373     0.00000    -0.00000    -0.00000
  Local       1.93379     1.93434   -47.32085     0.00000    -0.00000     0.00000
  n-local    76.80807    81.57395    79.10068     2.61817     0.16757    -0.55821
  augment    46.32615    46.32570    46.39075     0.00000     0.00000    -0.00000
  Kinetic   298.79098   306.70838   302.52589     5.55867     0.37543    -0.90387
  Fock        0.00000     0.00000     0.00000     0.00000     0.00000     0.00000
  -------------------------------------------------------------------------------------
  Total       0.00061     0.00061    -0.00246     0.00000     0.00000     0.00000
  in kB       0.01204     0.01204    -0.04863     0.00000     0.00000     0.00000
  external pressure =       -0.01 kB  Pullay stress =        0.00 kB


 VOLUME and BASIS-vectors are now :
 -----------------------------------------------------------------------------
  energy-cutoff  :      520.00
  volume of cell :       80.95
      direct lattice vectors                 reciprocal lattice vectors
     1.924322329 -3.333024044 -0.000000000     0.259831730 -0.150013919  0.000000000
     1.924322329  3.333024044  0.000000000     0.259831730  0.150013919 -0.000000000
     0.000000000  0.000000000  6.310229254     0.000000000 -0.000000000  0.158472848

  length of vectors
     3.848644658  3.848644658  6.310229254     0.300027839  0.300027839  0.158472848


 FORCES acting on ions
    electron-ion (+dipol)            ewald-force                    non-local-force                 convergence-correction
 -----------------------------------------------------------------------------------------------
   -.223E-06 0.517E-05 -.403E+01   -.183E-13 0.197E-10 0.396E+01   -.347E-17 0.139E-16 0.722E-01   0.102E-12 -.156E-10 -.225E-04
   -.223E-06 -.517E-05 -.403E+01   0.946E-14 -.197E-10 0.396E+01   -.347E-17 -.694E-17 0.722E-01   0.599E-14 0.155E-10 -.225E-04
   -.101E-06 -.707E-06 0.392E+01   -.702E-14 0.184E-10 -.396E+01   -.139E-16 0.278E-16 0.405E-01   0.199E-13 -.460E-11 0.304E-05
   -.101E-06 0.707E-06 0.392E+01   0.169E-13 -.184E-10 -.396E+01   -.278E-16 0.605E-20 0.405E-01   0.570E-14 0.462E-11 0.304E-05
 -----------------------------------------------------------------------------------------------
   -.648E-06 -.135E-11 -.226E+00   0.954E-15 -.433E-14 0.000E+00   -.486E-16 0.347E-16 0.225E+00   0.134E-12 -.104E-12 -.390E-04
 
 
 POSITION                                       TOTAL-FORCE (eV/Angst)
 -----------------------------------------------------------------------------------
      1.92432      1.11101      0.00164         0.000000     -0.000000     -0.000987
      1.92432     -1.11101      3.15676        -0.000000     -0.000000     -0.000987
      1.92432      1.11101      2.36469         0.000000      0.000000      0.000987
      1.92432     -1.11101      5.51981         0.000000      0.000000      0.000987
 -----------------------------------------------------------------------------------
    total drift:                               -0.000001     -0.000000     -0.000460


--------------------------------------------------------------------------------------------------------



  FREE ENERGIE OF THE ION-ELECTRON SYSTEM (eV)
  ---------------------------------------------------
  free  energy   TOTEN  =       -13.68803767 eV

  energy  without entropy=      -13.68803767  energy(sigma->0) =      -13.68803767
 
 d Force = 0.3132208E-06[ 0.263E-06, 0.364E-06]  d Energy = 0.3839486E-06-0.707E-07
 d Force =-0.1055103E-02[-0.105E-02,-0.106E-02]  d Ewald  =-0.4144291E-01 0.404E-01


--------------------------------------------------------------------------------------------------------


    POTLOK:  cpu time      0.0059: real time      0.0059


--------------------------------------------------------------------------------------------------------


 Quasi-Newton relaxation of ions (Broydens 2nd method)
  g(Force)  = 0.188E-06   g(Stress)= 0.817E-07

 retain information from N=  2 steps
 eigenvalues of (default step * inverse Hessian matrix)
  average eigenvalue of G=   0.8369
 eigenvalue spectrum of G is  0.6185  1.0553


--------------------------------------------------------------------------------------------------------


  
 reached required accuracy - stopping structural energy minimisation
 writing wavefunctions
     LOOP+:  cpu time      8.3681: real time      8.6027
    4ORBIT:  cpu time      0.0000: real time      0.0000

 total amount of memory used by VASP MPI-rank0    46289. kBytes
=======================================================================

   base      :      30000. kBytes
   nonl-proj :      13299. kBytes
   fftplans  :        353. kBytes
   grid      :       1823. kBytes
   one-center:         62. kBytes
   wavefun   :        752. kBytes
 
  
  
 General timing and accounting informations for this job:
 ========================================================
  
                  Total CPU time used (sec):       85.770
                            User time (sec):       77.762
                          System time (sec):        8.007
                         Elapsed time (sec):       87.686
  
                   Maximum memory used (kb):      180072.
                   Average memory used (kb):          N/A
  
                          Minor page faults:        86633
                          Major page faults:         1800
                 Voluntary context switches:         5400
