mesh: [    16,    16,    16 ]
nqpoint: 576    
reciprocal_lattice:
- [   0.27065805,  -0.15626450,   0.00000000 ] # a*
- [   0.27065805,   0.15626450,   0.00000000 ] # b*
- [   0.00000000,   0.00000000,   0.16507588 ] # c*
natom:   4      
lattice:
- [     1.847349435817407,    -3.199703082169449,     0.000000000000000 ] # a
- [     1.847349435817407,     3.199703082169449,     0.000000000000000 ] # b
- [     0.000000000000000,     0.000000000000000,     6.057820083721611 ] # c
points:
- symbol: Zn # 1
  coordinates: [  0.333333333333336,  0.666666666666664,  0.000549405094592 ]
  mass: 65.380000
- symbol: Zn # 2
  coordinates: [  0.666666666666664,  0.333333333333336,  0.500549405094592 ]
  mass: 65.380000
- symbol: S # 3
  coordinates: [  0.333333333333336,  0.666666666666664,  0.374450594905408 ]
  mass: 32.065000
- symbol: S # 4
  coordinates: [  0.666666666666664,  0.333333333333336,  0.874450594905408 ]
  mass: 32.065000

phonon:
- q-position: [    0.0312500,    0.0312500,    0.0312500 ]
  distance_from_gamma:  0.017685213
  weight: 4    
  band:
  - # 1
    frequency:     0.3386064934
  - # 2
    frequency:     0.3940702586
  - # 3
    frequency:     0.9841266932
  - # 4
    frequency:     1.7109991410
  - # 5
    frequency:     1.8399706520
  - # 6
    frequency:     6.3019547337
  - # 7
    frequency:     9.7082226269
  - # 8
    frequency:     9.7223945301
  - # 9
    frequency:     9.7895029396
  - # 10
    frequency:    10.0262286118
  - # 11
    frequency:    10.0312371286
  - # 12
    frequency:    11.4816617474

- q-position: [    0.0937500,    0.0312500,    0.0312500 ]
  distance_from_gamma:  0.035589578
  weight: 8    
  band:
  - # 1
    frequency:     0.6757735162
  - # 2
    frequency:     0.8111895445
  - # 3
    frequency:     1.7156460422
  - # 4
    frequency:     1.9788641878
  - # 5
    frequency:     2.2787587074
  - # 6
    frequency:     6.2552475753
  - # 7
    frequency:     9.7571312330
  - # 8
    frequency:     9.7910325555
  - # 9
    frequency:    10.0011130341
  - # 10
    frequency:    10.0878283680
  - # 11
    frequency:    10.1238878155
  - # 12
    frequency:    11.4990466819

- q-position: [    0.1562500,    0.0312500,    0.0312500 ]
  distance_from_gamma:  0.054621886
  weight: 8    
  band:
  - # 1
    frequency:     1.0060476691
  - # 2
    frequency:     1.2587935957
  - # 3
    frequency:     1.8979847446
  - # 4
    frequency:     2.6901947823
  - # 5
    frequency:     2.9877960856
  - # 6
    frequency:     6.2107364088
  - # 7
    frequency:     9.8443804186
  - # 8
    frequency:     9.8884089347
  - # 9
    frequency:    10.1497173275
  - # 10
    frequency:    10.2139838402
  - # 11
    frequency:    10.3889041652
  - # 12
    frequency:    11.5328179736

- q-position: [    0.2187500,    0.0312500,    0.0312500 ]
  distance_from_gamma:  0.073915924
  weight: 8    
  band:
  - # 1
    frequency:     1.3062053393
  - # 2
    frequency:     1.7054298870
  - # 3
    frequency:     2.0445471234
  - # 4
    frequency:     3.1480449637
  - # 5
    frequency:     3.8487260373
  - # 6
    frequency:     6.2253495063
  - # 7
    frequency:     9.9620432899
  - # 8
    frequency:     9.9847346054
  - # 9
    frequency:    10.2345726400
  - # 10
    frequency:    10.3630014191
  - # 11
    frequency:    10.7311824100
  - # 12
    frequency:    11.5824941345

- q-position: [    0.2812500,    0.0312500,    0.0312500 ]
  distance_from_gamma:  0.093309476
  weight: 8    
  band:
  - # 1
    frequency:     1.5475808151
  - # 2
    frequency:     2.1202742249
  - # 3
    frequency:     2.1821177645
  - # 4
    frequency:     3.3974128433
  - # 5
    frequency:     4.6312918999
  - # 6
    frequency:     6.3347353086
  - # 7
    frequency:    10.0502049422
  - # 8
    frequency:    10.1055765339
  - # 9
    frequency:    10.3116964064
  - # 10
    frequency:    10.5072149693
  - # 11
    frequency:    11.0093316523
  - # 12
    frequency:    11.6424930936

- q-position: [    0.3437500,    0.0312500,    0.0312500 ]
  distance_from_gamma:  0.112751204
  weight: 8    
  band:
  - # 1
    frequency:     1.7089420724
  - # 2
    frequency:     2.3039009200
  - # 3
    frequency:     2.4792807219
  - # 4
    frequency:     3.4608267827
  - # 5
    frequency:     5.2730491009
  - # 6
    frequency:     6.5011042882
  - # 7
    frequency:    10.0903774504
  - # 8
    frequency:    10.2416868720
  - # 9
    frequency:    10.3891375386
  - # 10
    frequency:    10.6305344002
  - # 11
    frequency:    11.1707504266
  - # 12
    frequency:    11.7040064020

- q-position: [    0.4062500,    0.0312500,    0.0312500 ]
  distance_from_gamma:  0.132219857
  weight: 8    
  band:
  - # 1
    frequency:     1.7939444019
  - # 2
    frequency:     2.3975759127
  - # 3
    frequency:     2.7606462452
  - # 4
    frequency:     3.4095555059
  - # 5
    frequency:     5.7287407112
  - # 6
    frequency:     6.6388405440
  - # 7
    frequency:    10.1079072144
  - # 8
    frequency:    10.3429301728
  - # 9
    frequency:    10.4686205483
  - # 10
    frequency:    10.7221641729
  - # 11
    frequency:    11.2211171925
  - # 12
    frequency:    11.7527878898

- q-position: [    0.4687500,    0.0312500,    0.0312500 ]
  distance_from_gamma:  0.151705070
  weight: 8    
  band:
  - # 1
    frequency:     1.8241674282
  - # 2
    frequency:     2.4424631082
  - # 3
    frequency:     2.9214697151
  - # 4
    frequency:     3.3379853980
  - # 5
    frequency:     5.9437650678
  - # 6
    frequency:     6.6973080147
  - # 7
    frequency:    10.1131839127
  - # 8
    frequency:    10.3888153275
  - # 9
    frequency:    10.5171216693
  - # 10
    frequency:    10.7694602583
  - # 11
    frequency:    11.2190335093
  - # 12
    frequency:    11.7751994736

- q-position: [   -0.4687500,    0.0312500,    0.0312500 ]
  distance_from_gamma:  0.141960819
  weight: 8    
  band:
  - # 1
    frequency:     1.8145626752
  - # 2
    frequency:     2.4271616120
  - # 3
    frequency:     2.8619142938
  - # 4
    frequency:     3.3684012947
  - # 5
    frequency:     5.8702127078
  - # 6
    frequency:     6.6784427769
  - # 7
    frequency:    10.1115855627
  - # 8
    frequency:    10.3732989998
  - # 9
    frequency:    10.4997915902
  - # 10
    frequency:    10.7527199496
  - # 11
    frequency:    11.2219419578
  - # 12
    frequency:    11.7676982357

- q-position: [   -0.4062500,    0.0312500,    0.0312500 ]
  distance_from_gamma:  0.122482966
  weight: 8    
  band:
  - # 1
    frequency:     1.7597691268
  - # 2
    frequency:     2.3556376898
  - # 3
    frequency:     2.6310229457
  - # 4
    frequency:     3.4443389982
  - # 5
    frequency:     5.5272167466
  - # 6
    frequency:     6.5783139743
  - # 7
    frequency:    10.1012463651
  - # 8
    frequency:    10.2985413240
  - # 9
    frequency:    10.4297357068
  - # 10
    frequency:    10.6808426837
  - # 11
    frequency:    11.2070407151
  - # 12
    frequency:    11.7310636103

- q-position: [   -0.3437500,    0.0312500,    0.0312500 ]
  distance_from_gamma:  0.103026021
  weight: 8    
  band:
  - # 1
    frequency:     1.6387009031
  - # 2
    frequency:     2.2448702937
  - # 3
    frequency:     2.3087280981
  - # 4
    frequency:     3.4485609957
  - # 5
    frequency:     4.9725480806
  - # 6
    frequency:     6.4160382600
  - # 7
    frequency:    10.0738715217
  - # 8
    frequency:    10.1757865327
  - # 9
    frequency:    10.3497883445
  - # 10
    frequency:    10.5722911334
  - # 11
    frequency:    11.1057723354
  - # 12
    frequency:    11.6737817366

- q-position: [   -0.2812500,    0.0312500,    0.0312500 ]
  distance_from_gamma:  0.083604581
  weight: 8    
  band:
  - # 1
    frequency:     1.4360073803
  - # 2
    frequency:     1.9186902141
  - # 3
    frequency:     2.1146294554
  - # 4
    frequency:     3.2988228050
  - # 5
    frequency:     4.2547012065
  - # 6
    frequency:     6.2685739354
  - # 7
    frequency:    10.0168299959
  - # 8
    frequency:    10.0369119293
  - # 9
    frequency:    10.2736912723
  - # 10
    frequency:    10.4368067220
  - # 11
    frequency:    10.8827847264
  - # 12
    frequency:    11.6116864813

- q-position: [   -0.2187500,    0.0312500,    0.0312500 ]
  distance_from_gamma:  0.064250852
  weight: 8    
  band:
  - # 1
    frequency:     1.1615934972
  - # 2
    frequency:     1.4841647601
  - # 3
    frequency:     1.9721818513
  - # 4
    frequency:     2.9450960300
  - # 5
    frequency:     3.4212854732
  - # 6
    frequency:     6.2071757137
  - # 7
    frequency:     9.9003028456
  - # 8
    frequency:     9.9381290416
  - # 9
    frequency:    10.1935156308
  - # 10
    frequency:    10.2880242593
  - # 11
    frequency:    10.5626866928
  - # 12
    frequency:    11.5559139484

- q-position: [   -0.1562500,    0.0312500,    0.0312500 ]
  distance_from_gamma:  0.045052182
  weight: 8    
  band:
  - # 1
    frequency:     0.8431962570
  - # 2
    frequency:     1.0332761255
  - # 3
    frequency:     1.8205496405
  - # 4
    frequency:     2.3648338939
  - # 5
    frequency:     2.5917172656
  - # 6
    frequency:     6.2293377277
  - # 7
    frequency:     9.7963199587
  - # 8
    frequency:     9.8381060142
  - # 9
    frequency:    10.0969126538
  - # 10
    frequency:    10.1429026807
  - # 11
    frequency:    10.2298053709
  - # 12
    frequency:    11.5137940987

- q-position: [   -0.0937500,    0.0312500,    0.0312500 ]
  distance_from_gamma:  0.026349712
  weight: 8    
  band:
  - # 1
    frequency:     0.5057236730
  - # 2
    frequency:     0.5957604739
  - # 3
    frequency:     1.4077559877
  - # 4
    frequency:     1.7709164633
  - # 5
    frequency:     2.0274188746
  - # 6
    frequency:     6.2813412132
  - # 7
    frequency:     9.7275333631
  - # 8
    frequency:     9.7512244520
  - # 9
    frequency:     9.8824408538
  - # 10
    frequency:    10.0512568920
  - # 11
    frequency:    10.0663052649
  - # 12
    frequency:    11.4884425781

- q-position: [   -0.0312500,    0.0312500,    0.0312500 ]
  distance_from_gamma:  0.011045203
  weight: 4    
  band:
  - # 1
    frequency:     0.2115691599
  - # 2
    frequency:     0.2408505899
  - # 3
    frequency:     0.6486905581
  - # 4
    frequency:     1.6880533938
  - # 5
    frequency:     1.7362578582
  - # 6
    frequency:     6.3132316028
  - # 7
    frequency:     9.6998109070
  - # 8
    frequency:     9.7074931372
  - # 9
    frequency:     9.7383962604
  - # 10
    frequency:    10.0130130395
  - # 11
    frequency:    10.0141254752
  - # 12
    frequency:    11.4783728053

- q-position: [    0.0937500,    0.0937500,    0.0312500 ]
  distance_from_gamma:  0.051009900
  weight: 4    
  band:
  - # 1
    frequency:     1.0743995609
  - # 2
    frequency:     1.1682448036
  - # 3
    frequency:     1.8328355546
  - # 4
    frequency:     2.6333899252
  - # 5
    frequency:     2.7550687345
  - # 6
    frequency:     6.2153457213
  - # 7
    frequency:     9.8245664177
  - # 8
    frequency:     9.8949807265
  - # 9
    frequency:    10.1314545816
  - # 10
    frequency:    10.1432014459
  - # 11
    frequency:    10.3483053476
  - # 12
    frequency:    11.5232793725

- q-position: [    0.1562500,    0.0937500,    0.0312500 ]
  distance_from_gamma:  0.068560067
  weight: 8    
  band:
  - # 1
    frequency:     1.4217439232
  - # 2
    frequency:     1.5770835791
  - # 3
    frequency:     2.0330045980
  - # 4
    frequency:     3.0095493404
  - # 5
    frequency:     3.5497491500
  - # 6
    frequency:     6.2060461951
  - # 7
    frequency:     9.9260720478
  - # 8
    frequency:    10.0082360210
  - # 9
    frequency:    10.1903312844
  - # 10
    frequency:    10.2948448168
  - # 11
    frequency:    10.6560177154
  - # 12
    frequency:    11.5582951552

- q-position: [    0.2187500,    0.0937500,    0.0312500 ]
  distance_from_gamma:  0.086959972
  weight: 8    
  band:
  - # 1
    frequency:     1.6984063917
  - # 2
    frequency:     1.9866592753
  - # 3
    frequency:     2.2213522012
  - # 4
    frequency:     3.2857439573
  - # 5
    frequency:     4.3078763260
  - # 6
    frequency:     6.2698116209
  - # 7
    frequency:    10.0428391183
  - # 8
    frequency:    10.0828879840
  - # 9
    frequency:    10.2656641193
  - # 10
    frequency:    10.4684692502
  - # 11
    frequency:    10.9443113476
  - # 12
    frequency:    11.5990432506

- q-position: [    0.2812500,    0.0937500,    0.0312500 ]
  distance_from_gamma:  0.105767064
  weight: 8    
  band:
  - # 1
    frequency:     1.9021946751
  - # 2
    frequency:     2.3515034769
  - # 3
    frequency:     2.3792960836
  - # 4
    frequency:     3.4116122523
  - # 5
    frequency:     4.9756300431
  - # 6
    frequency:     6.4017369027
  - # 7
    frequency:    10.0848493654
  - # 8
    frequency:    10.2013316138
  - # 9
    frequency:    10.3339390027
  - # 10
    frequency:    10.6408269120
  - # 11
    frequency:    11.1460783486
  - # 12
    frequency:    11.6445775479

- q-position: [    0.3437500,    0.0937500,    0.0312500 ]
  distance_from_gamma:  0.124797387
  weight: 8    
  band:
  - # 1
    frequency:     2.0277810604
  - # 2
    frequency:     2.4834165308
  - # 3
    frequency:     2.6681602617
  - # 4
    frequency:     3.4140018557
  - # 5
    frequency:     5.5049700089
  - # 6
    frequency:     6.5382323764
  - # 7
    frequency:    10.0991587272
  - # 8
    frequency:    10.3118068455
  - # 9
    frequency:    10.3858543431
  - # 10
    frequency:    10.7929070766
  - # 11
    frequency:    11.2272764264
  - # 12
    frequency:    11.6966174456

- q-position: [    0.4062500,    0.0937500,    0.0312500 ]
  distance_from_gamma:  0.143962443
  weight: 8    
  band:
  - # 1
    frequency:     2.0867332884
  - # 2
    frequency:     2.5532765123
  - # 3
    frequency:     2.8830388369
  - # 4
    frequency:     3.3558448404
  - # 5
    frequency:     5.8410548192
  - # 6
    frequency:     6.6158751909
  - # 7
    frequency:    10.1129514719
  - # 8
    frequency:    10.3496577253
  - # 9
    frequency:    10.4424902586
  - # 10
    frequency:    10.9104624522
  - # 11
    frequency:    11.2161939642
  - # 12
    frequency:    11.7381429160

- q-position: [   -0.5312500,    0.0937500,    0.0312500 ]
  distance_from_gamma:  0.153579748
  weight: 8    
  band:
  - # 1
    frequency:     2.0972919312
  - # 2
    frequency:     2.5679549201
  - # 3
    frequency:     2.9367868058
  - # 4
    frequency:     3.3321747487
  - # 5
    frequency:     5.9145537977
  - # 6
    frequency:     6.6289450875
  - # 7
    frequency:    10.1170347000
  - # 8
    frequency:    10.3528191786
  - # 9
    frequency:    10.4579975332
  - # 10
    frequency:    10.9424807841
  - # 11
    frequency:    11.2029945325
  - # 12
    frequency:    11.7475638840

- q-position: [   -0.4687500,    0.0937500,    0.0312500 ]
  distance_from_gamma:  0.134366667
  weight: 8    
  band:
  - # 1
    frequency:     2.0643232620
  - # 2
    frequency:     2.5246650909
  - # 3
    frequency:     2.7896723763
  - # 4
    frequency:     3.3877913290
  - # 5
    frequency:     5.7013118049
  - # 6
    frequency:     6.5863020239
  - # 7
    frequency:    10.1063557030
  - # 8
    frequency:    10.3390409391
  - # 9
    frequency:    10.4153380737
  - # 10
    frequency:    10.8576597581
  - # 11
    frequency:    11.2288379093
  - # 12
    frequency:    11.7203780447

- q-position: [   -0.4062500,    0.0937500,    0.0312500 ]
  distance_from_gamma:  0.115261202
  weight: 8    
  band:
  - # 1
    frequency:     1.9744600886
  - # 2
    frequency:     2.4306947076
  - # 3
    frequency:     2.5248183350
  - # 4
    frequency:     3.4246854453
  - # 5
    frequency:     5.2606856300
  - # 6
    frequency:     6.4743204055
  - # 7
    frequency:    10.0922809791
  - # 8
    frequency:    10.2631958401
  - # 9
    frequency:    10.3603664257
  - # 10
    frequency:    10.7201071266
  - # 11
    frequency:    11.2016758262
  - # 12
    frequency:    11.6702803607

- q-position: [   -0.3437500,    0.0937500,    0.0312500 ]
  distance_from_gamma:  0.096327406
  weight: 8    
  band:
  - # 1
    frequency:     1.8100325501
  - # 2
    frequency:     2.1788580527
  - # 3
    frequency:     2.3018515716
  - # 4
    frequency:     3.3672310240
  - # 5
    frequency:     4.6560553581
  - # 6
    frequency:     6.3302898766
  - # 7
    frequency:    10.0730568606
  - # 8
    frequency:    10.1360385259
  - # 9
    frequency:    10.3023794839
  - # 10
    frequency:    10.5563077049
  - # 11
    frequency:    11.0592356578
  - # 12
    frequency:    11.6209365818

- q-position: [   -0.2812500,    0.0937500,    0.0312500 ]
  distance_from_gamma:  0.077690892
  weight: 8    
  band:
  - # 1
    frequency:     1.5686008883
  - # 2
    frequency:     1.7844974360
  - # 3
    frequency:     2.1315283704
  - # 4
    frequency:     3.1652393942
  - # 5
    frequency:     3.9370438969
  - # 6
    frequency:     6.2274828774
  - # 7
    frequency:     9.9858084368
  - # 8
    frequency:    10.0489167001
  - # 9
    frequency:    10.2268211237
  - # 10
    frequency:    10.3801729306
  - # 11
    frequency:    10.8073339687
  - # 12
    frequency:    11.5782099284

- q-position: [   -0.2187500,    0.0937500,    0.0312500 ]
  distance_from_gamma:  0.059631043
  weight: 8    
  band:
  - # 1
    frequency:     1.2576330348
  - # 2
    frequency:     1.3696254016
  - # 3
    frequency:     1.9300537559
  - # 4
    frequency:     2.8283585586
  - # 5
    frequency:     3.1526744041
  - # 6
    frequency:     6.2036808218
  - # 7
    frequency:     9.8715847519
  - # 8
    frequency:     9.9550291199
  - # 9
    frequency:    10.1587756985
  - # 10
    frequency:    10.2154596098
  - # 11
    frequency:    10.4994225701
  - # 12
    frequency:    11.5397475003

- q-position: [   -0.1562500,    0.0937500,    0.0312500 ]
  distance_from_gamma:  0.042882734
  weight: 8    
  band:
  - # 1
    frequency:     0.8736577220
  - # 2
    frequency:     0.9796543563
  - # 3
    frequency:     1.7571448308
  - # 4
    frequency:     2.3480618695
  - # 5
    frequency:     2.4566218342
  - # 6
    frequency:     6.2346250079
  - # 7
    frequency:     9.7861788196
  - # 8
    frequency:     9.8373739554
  - # 9
    frequency:    10.0742467424
  - # 10
    frequency:    10.1080343521
  - # 11
    frequency:    10.2168581007
  - # 12
    frequency:    11.5095585135

- q-position: [   -0.0937500,    0.0937500,    0.0312500 ]
  distance_from_gamma:  0.029750253
  weight: 4    
  band:
  - # 1
    frequency:     0.5367194831
  - # 2
    frequency:     0.6759185908
  - # 3
    frequency:     1.6155323137
  - # 4
    frequency:     1.7534419864
  - # 5
    frequency:     2.1292838599
  - # 6
    frequency:     6.2720271332
  - # 7
    frequency:     9.7376101924
  - # 8
    frequency:     9.7621677433
  - # 9
    frequency:     9.9287040968
  - # 10
    frequency:    10.0699492316
  - # 11
    frequency:    10.0767974938
  - # 12
    frequency:    11.4919811856

- q-position: [    0.1562500,    0.1562500,    0.0312500 ]
  distance_from_gamma:  0.084737809
  weight: 4    
  band:
  - # 1
    frequency:     1.8253729645
  - # 2
    frequency:     1.9355217493
  - # 3
    frequency:     2.2507044853
  - # 4
    frequency:     3.2200732858
  - # 5
    frequency:     4.1613399005
  - # 6
    frequency:     6.2459240920
  - # 7
    frequency:    10.0353816957
  - # 8
    frequency:    10.0802675822
  - # 9
    frequency:    10.2924492348
  - # 10
    frequency:    10.4086622358
  - # 11
    frequency:    10.9294164801
  - # 12
    frequency:    11.5781323320

- q-position: [    0.2187500,    0.1562500,    0.0312500 ]
  distance_from_gamma:  0.102095988
  weight: 8    
  band:
  - # 1
    frequency:     2.1292548292
  - # 2
    frequency:     2.2870530023
  - # 3
    frequency:     2.4732721424
  - # 4
    frequency:     3.3324671198
  - # 5
    frequency:     4.7489396616
  - # 6
    frequency:     6.3348569541
  - # 7
    frequency:    10.0710769214
  - # 8
    frequency:    10.1560800999
  - # 9
    frequency:    10.4183045958
  - # 10
    frequency:    10.5644362898
  - # 11
    frequency:    11.1610624378
  - # 12
    frequency:    11.5864830112

- q-position: [    0.2812500,    0.1562500,    0.0312500 ]
  distance_from_gamma:  0.120123962
  weight: 8    
  band:
  - # 1
    frequency:     2.3329795652
  - # 2
    frequency:     2.5744430505
  - # 3
    frequency:     2.6651807579
  - # 4
    frequency:     3.3635678099
  - # 5
    frequency:     5.2695046414
  - # 6
    frequency:     6.4360198235
  - # 7
    frequency:    10.0589861926
  - # 8
    frequency:    10.2453326814
  - # 9
    frequency:    10.4830031407
  - # 10
    frequency:    10.7590054955
  - # 11
    frequency:    11.2926576939
  - # 12
    frequency:    11.6062707746

- q-position: [    0.3437500,    0.1562500,    0.0312500 ]
  distance_from_gamma:  0.138560539
  weight: 8    
  band:
  - # 1
    frequency:     2.4495909510
  - # 2
    frequency:     2.7229150241
  - # 3
    frequency:     2.8566017538
  - # 4
    frequency:     3.3456568032
  - # 5
    frequency:     5.6713038586
  - # 6
    frequency:     6.4974912003
  - # 7
    frequency:    10.0736374854
  - # 8
    frequency:    10.2498535361
  - # 9
    frequency:    10.5455933446
  - # 10
    frequency:    10.9401395351
  - # 11
    frequency:    11.2800482079
  - # 12
    frequency:    11.6639396307

- q-position: [    0.4062500,    0.1562500,    0.0312500 ]
  distance_from_gamma:  0.157262076
  weight: 8    
  band:
  - # 1
    frequency:     2.4948049095
  - # 2
    frequency:     2.7763803208
  - # 3
    frequency:     2.9670633225
  - # 4
    frequency:     3.3196707333
  - # 5
    frequency:     5.8777217586
  - # 6
    frequency:     6.5074218258
  - # 7
    frequency:    10.1114729485
  - # 8
    frequency:    10.2038409938
  - # 9
    frequency:    10.5879299778
  - # 10
    frequency:    11.0893260167
  - # 11
    frequency:    11.1854445269
  - # 12
    frequency:    11.7041296709

- q-position: [   -0.5312500,    0.1562500,    0.0312500 ]
  distance_from_gamma:  0.147884436
  weight: 8    
  band:
  - # 1
    frequency:     2.4801183227
  - # 2
    frequency:     2.7587880906
  - # 3
    frequency:     2.9278503990
  - # 4
    frequency:     3.3304516119
  - # 5
    frequency:     5.8052064931
  - # 6
    frequency:     6.5065913783
  - # 7
    frequency:    10.0925778373
  - # 8
    frequency:    10.2266847807
  - # 9
    frequency:    10.5726149310
  - # 10
    frequency:    11.0208544745
  - # 11
    frequency:    11.2368631206
  - # 12
    frequency:    11.6898514584

- q-position: [   -0.4687500,    0.1562500,    0.0312500 ]
  distance_from_gamma:  0.129302009
  weight: 8    
  band:
  - # 1
    frequency:     2.4012679455
  - # 2
    frequency:     2.6652553060
  - # 3
    frequency:     2.7636435791
  - # 4
    frequency:     3.3584656065
  - # 5
    frequency:     5.4891947146
  - # 6
    frequency:     6.4741130821
  - # 7
    frequency:    10.0620440469
  - # 8
    frequency:    10.2589700454
  - # 9
    frequency:    10.5135229535
  - # 10
    frequency:    10.8525032008
  - # 11
    frequency:    11.3023841606
  - # 12
    frequency:    11.6327231487

- q-position: [   -0.4062500,    0.1562500,    0.0312500 ]
  distance_from_gamma:  0.111046357
  weight: 8    
  band:
  - # 1
    frequency:     2.2428358274
  - # 2
    frequency:     2.4439270694
  - # 3
    frequency:     2.5714732067
  - # 4
    frequency:     3.3563652312
  - # 5
    frequency:     5.0204809729
  - # 6
    frequency:     6.3873751445
  - # 7
    frequency:    10.0630087592
  - # 8
    frequency:    10.2085003079
  - # 9
    frequency:    10.4540421251
  - # 10
    frequency:    10.6614135465
  - # 11
    frequency:    11.2440414640
  - # 12
    frequency:    11.5918169660

- q-position: [   -0.3437500,    0.1562500,    0.0312500 ]
  distance_from_gamma:  0.093309476
  weight: 8    
  band:
  - # 1
    frequency:     1.9906025148
  - # 2
    frequency:     2.1151480206
  - # 3
    frequency:     2.3655066147
  - # 4
    frequency:     3.2879661145
  - # 5
    frequency:     4.4608014534
  - # 6
    frequency:     6.2856884630
  - # 7
    frequency:    10.0781216677
  - # 8
    frequency:    10.0974080451
  - # 9
    frequency:    10.3646219579
  - # 10
    frequency:    10.4778839258
  - # 11
    frequency:    11.0534689683
  - # 12
    frequency:    11.5833359792

- q-position: [   -0.2812500,    0.1562500,    0.0312500 ]
  distance_from_gamma:  0.076453283
  weight: 8    
  band:
  - # 1
    frequency:     1.6339922640
  - # 2
    frequency:     1.7542162615
  - # 3
    frequency:     2.1363693112
  - # 4
    frequency:     3.1274456584
  - # 5
    frequency:     3.8556049523
  - # 6
    frequency:     6.2191707996
  - # 7
    frequency:     9.9780903832
  - # 8
    frequency:    10.0597863024
  - # 9
    frequency:    10.2266723409
  - # 10
    frequency:    10.3494109230
  - # 11
    frequency:    10.7951012626
  - # 12
    frequency:    11.5696214720

- q-position: [   -0.2187500,    0.1562500,    0.0312500 ]
  distance_from_gamma:  0.061209734
  weight: 8    
  band:
  - # 1
    frequency:     1.2028910394
  - # 2
    frequency:     1.4100426891
  - # 3
    frequency:     1.9514035871
  - # 4
    frequency:     2.8647916791
  - # 5
    frequency:     3.2542254118
  - # 6
    frequency:     6.2044968443
  - # 7
    frequency:     9.8811437428
  - # 8
    frequency:     9.9438031473
  - # 9
    frequency:    10.1712700275
  - # 10
    frequency:    10.2477331039
  - # 11
    frequency:    10.5180532368
  - # 12
    frequency:    11.5454874847

- q-position: [   -0.1562500,    0.1562500,    0.0312500 ]
  distance_from_gamma:  0.049104375
  weight: 4    
  band:
  - # 1
    frequency:     0.8750939798
  - # 2
    frequency:     1.1300642411
  - # 3
    frequency:     1.8651595071
  - # 4
    frequency:     2.5005355755
  - # 5
    frequency:     2.7681981515
  - # 6
    frequency:     6.2203663190
  - # 7
    frequency:     9.8160542636
  - # 8
    frequency:     9.8525325390
  - # 9
    frequency:    10.1225263401
  - # 10
    frequency:    10.1874596127
  - # 11
    frequency:    10.2829931685
  - # 12
    frequency:    11.5218342097

- q-position: [    0.2187500,    0.2187500,    0.0312500 ]
  distance_from_gamma:  0.118525211
  weight: 4    
  band:
  - # 1
    frequency:     2.4826706942
  - # 2
    frequency:     2.5541886036
  - # 3
    frequency:     2.7440837977
  - # 4
    frequency:     3.3186158535
  - # 5
    frequency:     5.1605425591
  - # 6
    frequency:     6.3932669103
  - # 7
    frequency:    10.0330695299
  - # 8
    frequency:    10.2303817968
  - # 9
    frequency:    10.6179939232
  - # 10
    frequency:    10.6420117658
  - # 11
    frequency:    11.3603770225
  - # 12
    frequency:    11.5378605825

- q-position: [    0.2812500,    0.2187500,    0.0312500 ]
  distance_from_gamma:  0.135779018
  weight: 8    
  band:
  - # 1
    frequency:     2.7135752224
  - # 2
    frequency:     2.7735901476
  - # 3
    frequency:     2.9599848155
  - # 4
    frequency:     3.2884421843
  - # 5
    frequency:     5.5277004807
  - # 6
    frequency:     6.4111922354
  - # 7
    frequency:    10.0135499726
  - # 8
    frequency:    10.2320533834
  - # 9
    frequency:    10.6814360076
  - # 10
    frequency:    10.8470475594
  - # 11
    frequency:    11.4107751456
  - # 12
    frequency:    11.5576646690

- q-position: [    0.3437500,    0.2187500,    0.0312500 ]
  distance_from_gamma:  0.153579748
  weight: 8    
  band:
  - # 1
    frequency:     2.8361538508
  - # 2
    frequency:     2.9288929421
  - # 3
    frequency:     3.0378758233
  - # 4
    frequency:     3.2930023261
  - # 5
    frequency:     5.8029685962
  - # 6
    frequency:     6.3770713081
  - # 7
    frequency:    10.0398969490
  - # 8
    frequency:    10.1593911021
  - # 9
    frequency:    10.7405777560
  - # 10
    frequency:    11.0341125288
  - # 11
    frequency:    11.2860898274
  - # 12
    frequency:    11.6524953912

- q-position: [   -0.5937500,    0.2187500,    0.0312500 ]
  distance_from_gamma:  0.162629311
  weight: 8    
  band:
  - # 1
    frequency:     2.8608064674
  - # 2
    frequency:     2.9816695931
  - # 3
    frequency:     3.0229744482
  - # 4
    frequency:     3.3030555565
  - # 5
    frequency:     5.8732862620
  - # 6
    frequency:     6.3576605710
  - # 7
    frequency:    10.0713631382
  - # 8
    frequency:    10.1144690892
  - # 9
    frequency:    10.7558752844
  - # 10
    frequency:    11.1159388453
  - # 11
    frequency:    11.2142940642
  - # 12
    frequency:    11.6734292313

- q-position: [   -0.5312500,    0.2187500,    0.0312500 ]
  distance_from_gamma:  0.144623495
  weight: 8    
  band:
  - # 1
    frequency:     2.7870304159
  - # 2
    frequency:     2.8598309382
  - # 3
    frequency:     3.0198633857
  - # 4
    frequency:     3.2845434990
  - # 5
    frequency:     5.6818546348
  - # 6
    frequency:     6.3991221408
  - # 7
    frequency:    10.0202473369
  - # 8
    frequency:    10.2016000893
  - # 9
    frequency:    10.7136537653
  - # 10
    frequency:    10.9435977467
  - # 11
    frequency:    11.3543662871
  - # 12
    frequency:    11.6121733343

- q-position: [   -0.4687500,    0.2187500,    0.0312500 ]
  distance_from_gamma:  0.127069661
  weight: 8    
  band:
  - # 1
    frequency:     2.6137953035
  - # 2
    frequency:     2.6703355959
  - # 3
    frequency:     2.8641849818
  - # 4
    frequency:     3.3023748438
  - # 5
    frequency:     5.3516083890
  - # 6
    frequency:     6.4090147587
  - # 7
    frequency:    10.0187056510
  - # 8
    frequency:    10.2427605309
  - # 9
    frequency:    10.6501755619
  - # 10
    frequency:    10.7447512172
  - # 11
    frequency:    11.4266285402
  - # 12
    frequency:    11.5183552658

- q-position: [   -0.4062500,    0.2187500,    0.0312500 ]
  distance_from_gamma:  0.110184042