   9   9   1   0
  0.1263398E+02  0.4916558E-09  0.4916558E-09  0.5431625E-09  0.5000000E-15
   1.0000000000000000E-004
  CAR 
 unknown system                          
     20.00000000    -20.00000000 2000      1.05552776      1.00000000
    -20.000  0.0000E+00  0.0000E+00
    -19.980  0.0000E+00  0.0000E+00
    -19.960  0.0000E+00  0.0000E+00
    -19.940  0.0000E+00  0.0000E+00
    -19.920  0.0000E+00  0.0000E+00
    -19.900  0.0000E+00  0.0000E+00
    -19.880  0.0000E+00  0.0000E+00
    -19.860  0.0000E+00  0.0000E+00
    -19.840  0.0000E+00  0.0000E+00
    -19.820  0.0000E+00  0.0000E+00
    -19.800  0.0000E+00  0.0000E+00
    -19.780  0.0000E+00  0.0000E+00
    -19.760  0.0000E+00  0.0000E+00
    -19.740  0.0000E+00  0.0000E+00
    -19.720  0.0000E+00  0.0000E+00
    -19.700  0.0000E+00  0.0000E+00
    -19.680  0.0000E+00  0.0000E+00
    -19.660  0.0000E+00  0.0000E+00
    -19.640  0.0000E+00  0.0000E+00
    -19.620  0.0000E+00  0.0000E+00
    -19.600  0.0000E+00  0.0000E+00
    -19.580  0.0000E+00  0.0000E+00
    -19.560  0.0000E+00  0.0000E+00
    -19.540  0.0000E+00  0.0000E+00
    -19.520  0.0000E+00  0.0000E+00
    -19.500  0.0000E+00  0.0000E+00
    -19.480  0.0000E+00  0.0000E+00
    -19.460  0.0000E+00  0.0000E+00
    -19.440  0.0000E+00  0.0000E+00
    -19.420  0.0000E+00  0.0000E+00
    -19.400  0.0000E+00  0.0000E+00
    -19.380  0.0000E+00  0.0000E+00
    -19.360  0.0000E+00  0.0000E+00
    -19.340  0.0000E+00  0.0000E+00
    -19.320  0.0000E+00  0.0000E+00
    -19.300  0.0000E+00  0.0000E+00
    -19.280  0.0000E+00  0.0000E+00
    -19.260  0.0000E+00  0.0000E+00
    -19.240  0.0000E+00  0.0000E+00
    -19.220  0.0000E+00  0.0000E+00
    -19.200  0.0000E+00  0.0000E+00
    -19.180  0.0000E+00  0.0000E+00
    -19.160  0.0000E+00  0.0000E+00
    -19.140  0.0000E+00  0.0000E+00
    -19.120  0.0000E+00  0.0000E+00
    -19.100  0.0000E+00  0.0000E+00
    -19.080  0.0000E+00  0.0000E+00
    -19.060  0.0000E+00  0.0000E+00
    -19.040  0.0000E+00  0.0000E+00
    -19.020  0.0000E+00  0.0000E+00
    -18.999  0.0000E+00  0.0000E+00
    -18.979  0.0000E+00  0.0000E+00
    -18.959  0.0000E+00  0.0000E+00
    -18.939  0.0000E+00  0.0000E+00
    -18.919  0.0000E+00  0.0000E+00
    -18.899  0.0000E+00  0.0000E+00
    -18.879  0.0000E+00  0.0000E+00
    -18.859  0.0000E+00  0.0000E+00
    -18.839  0.0000E+00  0.0000E+00
    -18.819  0.0000E+00  0.0000E+00
    -18.799  0.0000E+00  0.0000E+00
    -18.779  0.0000E+00  0.0000E+00
    -18.759  0.0000E+00  0.0000E+00
    -18.739  0.0000E+00  0.0000E+00
    -18.719  0.0000E+00  0.0000E+00
    -18.699  0.0000E+00  0.0000E+00
    -18.679  0.0000E+00  0.0000E+00
    -18.659  0.0000E+00  0.0000E+00
    -18.639  0.0000E+00  0.0000E+00
    -18.619  0.0000E+00  0.0000E+00
    -18.599  0.0000E+00  0.0000E+00
    -18.579  0.0000E+00  0.0000E+00
    -18.559  0.0000E+00  0.0000E+00
    -18.539  0.0000E+00  0.0000E+00
    -18.519  0.0000E+00  0.0000E+00
    -18.499  0.0000E+00  0.0000E+00
    -18.479  0.0000E+00  0.0000E+00
    -18.459  0.0000E+00  0.0000E+00
    -18.439  0.0000E+00  0.0000E+00
    -18.419  0.0000E+00  0.0000E+00
    -18.399  0.0000E+00  0.0000E+00
    -18.379  0.0000E+00  0.0000E+00
    -18.359  0.0000E+00  0.0000E+00
    -18.339  0.7869E-01  0.3080E-03
    -18.319  0.5397E+00  0.6055E-02
    -18.299  0.7357E+00  0.1927E-01
    -18.279  0.8575E+00  0.3480E-01
    -18.259  0.1060E+01  0.5397E-01
    -18.239  0.1217E+01  0.7688E-01
    -18.219  0.1333E+01  0.1024E+00
    -18.199  0.1450E+01  0.1302E+00
    -18.179  0.1587E+01  0.1606E+00
    -18.159  0.1725E+01  0.1937E+00
    -18.139  0.1846E+01  0.2295E+00
    -18.119  0.1984E+01  0.2677E+00
    -18.099  0.2130E+01  0.3089E+00
    -18.079  0.2285E+01  0.3531E+00
    -18.059  0.2428E+01  0.4002E+00
    -18.039  0.2605E+01  0.4505E+00
    -18.019  0.2809E+01  0.5046E+00
    -17.999  0.3027E+01  0.5630E+00
    -17.979  0.3287E+01  0.6261E+00
    -17.959  0.3581E+01  0.6948E+00
    -17.939  0.3958E+01  0.7698E+00
    -17.919  0.4523E+01  0.8545E+00
    -17.899  0.5201E+01  0.9516E+00
    -17.879  0.5905E+01  0.1063E+01
    -17.859  0.8224E+01  0.1200E+01
    -17.839  0.8091E+01  0.1354E+01
    -17.819  0.8943E+01  0.1527E+01
    -17.799  0.1048E+02  0.1722E+01
    -17.779  0.5898E+01  0.1879E+01
    -17.759  0.3771E+01  0.1974E+01
    -17.739  0.1568E+01  0.2013E+01
    -17.719  0.1011E+01  0.2039E+01
    -17.699  0.6322E+00  0.2052E+01
    -17.679  0.7287E+00  0.2066E+01
    -17.659  0.8446E+00  0.2082E+01
    -17.639  0.9633E+00  0.2100E+01
    -17.619  0.1080E+01  0.2120E+01
    -17.599  0.1195E+01  0.2143E+01
    -17.579  0.1297E+01  0.2168E+01
    -17.559  0.1392E+01  0.2195E+01
    -17.539  0.1609E+01  0.2225E+01
    -17.519  0.2025E+01  0.2260E+01
    -17.499  0.2528E+01  0.2305E+01
    -17.479  0.2899E+01  0.2360E+01
    -17.459  0.3365E+01  0.2422E+01
    -17.439  0.4180E+01  0.2497E+01
    -17.419  0.5352E+01  0.2592E+01
    -17.399  0.6985E+01  0.2714E+01
    -17.379  0.1751E+02  0.2932E+01
    -17.359  0.9585E+01  0.3224E+01
    -17.339  0.5765E+01  0.3361E+01
    -17.319  0.4394E+01  0.3461E+01
    -17.299  0.3631E+01  0.3540E+01
    -17.279  0.2968E+01  0.3606E+01
    -17.259  0.2473E+01  0.3660E+01
    -17.239  0.2075E+01  0.3705E+01
    -17.219  0.1807E+01  0.3743E+01
    -17.199  0.1604E+01  0.3778E+01
    -17.179  0.1410E+01  0.3808E+01
    -17.159  0.1313E+01  0.3835E+01
    -17.139  0.1225E+01  0.3860E+01
    -17.119  0.1104E+01  0.3884E+01
    -17.099  0.9514E+00  0.3904E+01
    -17.079  0.8111E+00  0.3922E+01
    -17.059  0.6912E+00  0.3937E+01
    -17.039  0.7080E+00  0.3950E+01
    -17.019  0.8384E+00  0.3965E+01
    -16.998  0.9535E+00  0.3983E+01
    -16.978  0.1067E+01  0.4004E+01
    -16.958  0.1190E+01  0.4026E+01
    -16.938  0.1473E+01  0.4052E+01
    -16.918  0.1874E+01  0.4086E+01
    -16.898  0.3031E+01  0.4131E+01
    -16.878  0.4014E+01  0.4207E+01
    -16.858  0.4782E+01  0.4296E+01
    -16.838  0.5763E+01  0.4399E+01
    -16.818  0.1132E+02  0.4565E+01
    -16.798  0.1655E+02  0.4862E+01
    -16.778  0.6442E+01  0.5070E+01
    -16.758  0.4851E+01  0.5180E+01
    -16.738  0.3878E+01  0.5267E+01
    -16.718  0.3213E+01  0.5337E+01
    -16.698  0.2883E+01  0.5398E+01
    -16.678  0.2602E+01  0.5453E+01
    -16.658  0.2368E+01  0.5502E+01
    -16.638  0.2162E+01  0.5548E+01
    -16.618  0.1986E+01  0.5589E+01
    -16.598  0.1858E+01  0.5627E+01
    -16.578  0.1740E+01  0.5663E+01
    -16.558  0.1626E+01  0.5697E+01
    -16.538  0.1517E+01  0.5728E+01
    -16.518  0.1408E+01  0.5758E+01
    -16.498  0.1308E+01  0.5785E+01
    -16.478  0.1227E+01  0.5810E+01
    -16.458  0.1150E+01  0.5834E+01
    -16.438  0.1074E+01  0.5856E+01
    -16.418  0.1001E+01  0.5877E+01
    -16.398  0.9279E+00  0.5896E+01
    -16.378  0.8563E+00  0.5914E+01
    -16.358  0.7926E+00  0.5931E+01
    -16.338  0.7101E+00  0.5946E+01
    -16.318  0.6120E+00  0.5959E+01
    -16.298  0.5149E+00  0.5970E+01
    -16.278  0.2653E+01  0.5982E+01
    -16.258  0.1478E+03  0.6549E+01
    -16.238  0.4801E+02  0.7512E+01
    -16.218  0.8152E+02  0.8608E+01
    -16.198  0.5203E+02  0.9587E+01
    -16.178  0.1028E+03  0.1116E+02
    -16.158  0.3075E+02  0.1185E+02
    -16.138  0.3248E+01  0.1200E+02
    -16.118  0.0000E+00  0.1200E+02
    -16.098  0.0000E+00  0.1200E+02
    -16.078  0.0000E+00  0.1200E+02
    -16.058  0.0000E+00  0.1200E+02
    -16.038  0.0000E+00  0.1200E+02
    -16.018  0.0000E+00  0.1200E+02
    -15.998  0.0000E+00  0.1200E+02
    -15.978  0.0000E+00  0.1200E+02
    -15.958  0.0000E+00  0.1200E+02
    -15.938  0.0000E+00  0.1200E+02
    -15.918  0.0000E+00  0.1200E+02
    -15.898  0.0000E+00  0.1200E+02
    -15.878  0.0000E+00  0.1200E+02
    -15.858  0.0000E+00  0.1200E+02
    -15.838  0.0000E+00  0.1200E+02
    -15.818  0.0000E+00  0.1200E+02
    -15.798  0.0000E+00  0.1200E+02
    -15.778  0.0000E+00  0.1200E+02
    -15.758  0.0000E+00  0.1200E+02
    -15.738  0.0000E+00  0.1200E+02
    -15.718  0.0000E+00  0.1200E+02
    -15.698  0.0000E+00  0.1200E+02
    -15.678  0.0000E+00  0.1200E+02
    -15.658  0.0000E+00  0.1200E+02
    -15.638  0.0000E+00  0.1200E+02
    -15.618  0.0000E+00  0.1200E+02
    -15.598  0.0000E+00  0.1200E+02
    -15.578  0.0000E+00  0.1200E+02
    -15.558  0.0000E+00  0.1200E+02
    -15.538  0.0000E+00  0.1200E+02
    -15.518  0.0000E+00  0.1200E+02
    -15.498  0.0000E+00  0.1200E+02
    -15.478  0.0000E+00  0.1200E+02
    -15.458  0.0000E+00  0.1200E+02
    -15.438  0.0000E+00  0.1200E+02
    -15.418  0.0000E+00  0.1200E+02
    -15.398  0.0000E+00  0.1200E+02
    -15.378  0.0000E+00  0.1200E+02
    -15.358  0.0000E+00  0.1200E+02
    -15.338  0.0000E+00  0.1200E+02
    -15.318  0.0000E+00  0.1200E+02
    -15.298  0.0000E+00  0.1200E+02
    -15.278  0.0000E+00  0.1200E+02
    -15.258  0.0000E+00  0.1200E+02
    -15.238  0.0000E+00  0.1200E+02
    -15.218  0.0000E+00  0.1200E+02
    -15.198  0.0000E+00  0.1200E+02
    -15.178  0.0000E+00  0.1200E+02
    -15.158  0.0000E+00  0.1200E+02
    -15.138  0.0000E+00  0.1200E+02
    -15.118  0.0000E+00  0.1200E+02
    -15.098  0.0000E+00  0.1200E+02
    -15.078  0.0000E+00  0.1200E+02
    -15.058  0.0000E+00  0.1200E+02
    -15.038  0.0000E+00  0.1200E+02
    -15.018  0.0000E+00  0.1200E+02
    -14.997  0.0000E+00  0.1200E+02
    -14.977  0.0000E+00  0.1200E+02
    -14.957  0.0000E+00  0.1200E+02
    -14.937  0.0000E+00  0.1200E+02
    -14.917  0.0000E+00  0.1200E+02
    -14.897  0.0000E+00  0.1200E+02
    -14.877  0.0000E+00  0.1200E+02
    -14.857  0.0000E+00  0.1200E+02
    -14.837  0.0000E+00  0.1200E+02
    -14.817  0.0000E+00  0.1200E+02
    -14.797  0.0000E+00  0.1200E+02
    -14.777  0.0000E+00  0.1200E+02
    -14.757  0.0000E+00  0.1200E+02
    -14.737  0.0000E+00  0.1200E+02
    -14.717  0.0000E+00  0.1200E+02
    -14.697  0.0000E+00  0.1200E+02
    -14.677  0.0000E+00  0.1200E+02
    -14.657  0.0000E+00  0.1200E+02
    -14.637  0.0000E+00  0.1200E+02
    -14.617  0.0000E+00  0.1200E+02
    -14.597  0.0000E+00  0.1200E+02
    -14.577  0.0000E+00  0.1200E+02
    -14.557  0.0000E+00  0.1200E+02
    -14.537  0.0000E+00  0.1200E+02
    -14.517  0.0000E+00  0.1200E+02
    -14.497  0.0000E+00  0.1200E+02
    -14.477  0.0000E+00  0.1200E+02
    -14.457  0.0000E+00  0.1200E+02
    -14.437  0.0000E+00  0.1200E+02
    -14.417  0.0000E+00  0.1200E+02
    -14.397  0.0000E+00  0.1200E+02
    -14.377  0.0000E+00  0.1200E+02
    -14.357  0.0000E+00  0.1200E+02
    -14.337  0.0000E+00  0.1200E+02
    -14.317  0.0000E+00  0.1200E+02
    -14.297  0.0000E+00  0.1200E+02
    -14.277  0.0000E+00  0.1200E+02
    -14.257  0.0000E+00  0.1200E+02
    -14.237  0.0000E+00  0.1200E+02
    -14.217  0.0000E+00  0.1200E+02
    -14.197  0.0000E+00  0.1200E+02
    -14.177  0.0000E+00  0.1200E+02
    -14.157  0.0000E+00  0.1200E+02
    -14.137  0.0000E+00  0.1200E+02
    -14.117  0.0000E+00  0.1200E+02
    -14.097  0.0000E+00  0.1200E+02
    -14.077  0.0000E+00  0.1200E+02
    -14.057  0.0000E+00  0.1200E+02
    -14.037  0.0000E+00  0.1200E+02
    -14.017  0.0000E+00  0.1200E+02
    -13.997  0.0000E+00  0.1200E+02
    -13.977  0.0000E+00  0.1200E+02
    -13.957  0.0000E+00  0.1200E+02
    -13.937  0.0000E+00  0.1200E+02
    -13.917  0.0000E+00  0.1200E+02
    -13.897  0.0000E+00  0.1200E+02
    -13.877  0.0000E+00  0.1200E+02
    -13.857  0.0000E+00  0.1200E+02
    -13.837  0.0000E+00  0.1200E+02
    -13.817  0.0000E+00  0.1200E+02
    -13.797  0.0000E+00  0.1200E+02
    -13.777  0.0000E+00  0.1200E+02
    -13.757  0.0000E+00  0.1200E+02
    -13.737  0.0000E+00  0.1200E+02
    -13.717  0.0000E+00  0.1200E+02
    -13.697  0.0000E+00  0.1200E+02
    -13.677  0.0000E+00  0.1200E+02
    -13.657  0.0000E+00  0.1200E+02
    -13.637  0.0000E+00  0.1200E+02
    -13.617  0.0000E+00  0.1200E+02
    -13.597  0.0000E+00  0.1200E+02
    -13.577  0.0000E+00  0.1200E+02
    -13.557  0.0000E+00  0.1200E+02
    -13.537  0.0000E+00  0.1200E+02
    -13.517  0.0000E+00  0.1200E+02
    -13.497  0.0000E+00  0.1200E+02
    -13.477  0.0000E+00  0.1200E+02
    -13.457  0.0000E+00  0.1200E+02
    -13.437  0.0000E+00  0.1200E+02
    -13.417  0.0000E+00  0.1200E+02
    -13.397  0.0000E+00  0.1200E+02
    -13.377  0.0000E+00  0.1200E+02
    -13.357  0.0000E+00  0.1200E+02
    -13.337  0.0000E+00  0.1200E+02
    -13.317  0.0000E+00  0.1200E+02
    -13.297  0.0000E+00  0.1200E+02
    -13.277  0.0000E+00  0.1200E+02
    -13.257  0.0000E+00  0.1200E+02
    -13.237  0.0000E+00  0.1200E+02
    -13.217  0.0000E+00  0.1200E+02
    -13.197  0.0000E+00  0.1200E+02
    -13.177  0.0000E+00  0.1200E+02
    -13.157  0.0000E+00  0.1200E+02
    -13.137  0.0000E+00  0.1200E+02
    -13.117  0.0000E+00  0.1200E+02
    -13.097  0.0000E+00  0.1200E+02
    -13.077  0.0000E+00  0.1200E+02
    -13.057  0.0000E+00  0.1200E+02
    -13.037  0.0000E+00  0.1200E+02
    -13.017  0.0000E+00  0.1200E+02
    -12.996  0.0000E+00  0.1200E+02
    -12.976  0.0000E+00  0.1200E+02
    -12.956  0.0000E+00  0.1200E+02
    -12.936  0.0000E+00  0.1200E+02
    -12.916  0.0000E+00  0.1200E+02
    -12.896  0.0000E+00  0.1200E+02
    -12.876  0.0000E+00  0.1200E+02
    -12.856  0.0000E+00  0.1200E+02
    -12.836  0.0000E+00  0.1200E+02
    -12.816  0.0000E+00  0.1200E+02
    -12.796  0.0000E+00  0.1200E+02
    -12.776  0.0000E+00  0.1200E+02
    -12.756  0.0000E+00  0.1200E+02
    -12.736  0.0000E+00  0.1200E+02
    -12.716  0.0000E+00  0.1200E+02
    -12.696  0.0000E+00  0.1200E+02
    -12.676  0.0000E+00  0.1200E+02
    -12.656  0.0000E+00  0.1200E+02
    -12.636  0.0000E+00  0.1200E+02
    -12.616  0.0000E+00  0.1200E+02
    -12.596  0.0000E+00  0.1200E+02
    -12.576  0.0000E+00  0.1200E+02
    -12.556  0.0000E+00  0.1200E+02
    -12.536  0.0000E+00  0.1200E+02
    -12.516  0.0000E+00  0.1200E+02
    -12.496  0.0000E+00  0.1200E+02
    -12.476  0.0000E+00  0.1200E+02
    -12.456  0.0000E+00  0.1200E+02
    -12.436  0.0000E+00  0.1200E+02
    -12.416  0.0000E+00  0.1200E+02
    -12.396  0.0000E+00  0.1200E+02
    -12.376  0.0000E+00  0.1200E+02
    -12.356  0.0000E+00  0.1200E+02
    -12.336  0.0000E+00  0.1200E+02
    -12.316  0.0000E+00  0.1200E+02
    -12.296  0.0000E+00  0.1200E+02
    -12.276  0.0000E+00  0.1200E+02
    -12.256  0.0000E+00  0.1200E+02
    -12.236  0.0000E+00  0.1200E+02
    -12.216  0.0000E+00  0.1200E+02
    -12.196  0.0000E+00  0.1200E+02
    -12.176  0.0000E+00  0.1200E+02
    -12.156  0.0000E+00  0.1200E+02
    -12.136  0.0000E+00  0.1200E+02
    -12.116  0.0000E+00  0.1200E+02
    -12.096  0.0000E+00  0.1200E+02
    -12.076  0.0000E+00  0.1200E+02
    -12.056  0.0000E+00  0.1200E+02
    -12.036  0.0000E+00  0.1200E+02
    -12.016  0.0000E+00  0.1200E+02
    -11.996  0.0000E+00  0.1200E+02
    -11.976  0.0000E+00  0.1200E+02
    -11.956  0.0000E+00  0.1200E+02
    -11.936  0.0000E+00  0.1200E+02
    -11.916  0.0000E+00  0.1200E+02
    -11.896  0.0000E+00  0.1200E+02
    -11.876  0.0000E+00  0.1200E+02
    -11.856  0.0000E+00  0.1200E+02
    -11.836  0.0000E+00  0.1200E+02
    -11.816  0.0000E+00  0.1200E+02
    -11.796  0.0000E+00  0.1200E+02
    -11.776  0.0000E+00  0.1200E+02
    -11.756  0.0000E+00  0.1200E+02
    -11.736  0.0000E+00  0.1200E+02
    -11.716  0.0000E+00  0.1200E+02
    -11.696  0.0000E+00  0.1200E+02
    -11.676  0.0000E+00  0.1200E+02
    -11.656  0.0000E+00  0.1200E+02
    -11.636  0.0000E+00  0.1200E+02
    -11.616  0.0000E+00  0.1200E+02
    -11.596  0.0000E+00  0.1200E+02
    -11.576  0.0000E+00  0.1200E+02
    -11.556  0.0000E+00  0.1200E+02
    -11.536  0.0000E+00  0.1200E+02
    -11.516  0.0000E+00  0.1200E+02
    -11.496  0.0000E+00  0.1200E+02
    -11.476  0.0000E+00  0.1200E+02
    -11.456  0.0000E+00  0.1200E+02
    -11.436  0.0000E+00  0.1200E+02
    -11.416  0.0000E+00  0.1200E+02
    -11.396  0.0000E+00  0.1200E+02
    -11.376  0.0000E+00  0.1200E+02
    -11.356  0.0000E+00  0.1200E+02
    -11.336  0.0000E+00  0.1200E+02
    -11.316  0.0000E+00  0.1200E+02
    -11.296  0.0000E+00  0.1200E+02
    -11.276  0.0000E+00  0.1200E+02
    -11.256  0.0000E+00  0.1200E+02
    -11.236  0.0000E+00  0.1200E+02
    -11.216  0.0000E+00  0.1200E+02
    -11.196  0.0000E+00  0.1200E+02
    -11.176  0.0000E+00  0.1200E+02
    -11.156  0.0000E+00  0.1200E+02
    -11.136  0.0000E+00  0.1200E+02
    -11.116  0.0000E+00  0.1200E+02
    -11.096  0.0000E+00  0.1200E+02
    -11.076  0.0000E+00  0.1200E+02
    -11.056  0.0000E+00  0.1200E+02
    -11.036  0.0000E+00  0.1200E+02
    -11.016  0.0000E+00  0.1200E+02
    -10.995  0.0000E+00  0.1200E+02
    -10.975  0.0000E+00  0.1200E+02
    -10.955  0.0000E+00  0.1200E+02
    -10.935  0.0000E+00  0.1200E+02
    -10.915  0.0000E+00  0.1200E+02
    -10.895  0.0000E+00  0.1200E+02
    -10.875  0.0000E+00  0.1200E+02
    -10.855  0.0000E+00  0.1200E+02
    -10.835  0.0000E+00  0.1200E+02
    -10.815  0.0000E+00  0.1200E+02
    -10.795  0.0000E+00  0.1200E+02
    -10.775  0.0000E+00  0.1200E+02
    -10.755  0.0000E+00  0.1200E+02
    -10.735  0.0000E+00  0.1200E+02
    -10.715  0.0000E+00  0.1200E+02
    -10.695  0.0000E+00  0.1200E+02
    -10.675  0.0000E+00  0.1200E+02
    -10.655  0.0000E+00  0.1200E+02
    -10.635  0.0000E+00  0.1200E+02
    -10.615  0.0000E+00  0.1200E+02
    -10.595  0.0000E+00  0.1200E+02
    -10.575  0.0000E+00  0.1200E+02
    -10.555  0.0000E+00  0.1200E+02
    -10.535  0.0000E+00  0.1200E+02
    -10.515  0.0000E+00  0.1200E+02
    -10.495  0.0000E+00  0.1200E+02
    -10.475  0.0000E+00  0.1200E+02
    -10.455  0.0000E+00  0.1200E+02
    -10.435  0.0000E+00  0.1200E+02
    -10.415  0.0000E+00  0.1200E+02
    -10.395  0.0000E+00  0.1200E+02
    -10.375  0.0000E+00  0.1200E+02
    -10.355  0.0000E+00  0.1200E+02
    -10.335  0.0000E+00  0.1200E+02
    -10.315  0.0000E+00  0.1200E+02
    -10.295  0.0000E+00  0.1200E+02
    -10.275  0.0000E+00  0.1200E+02
    -10.255  0.0000E+00  0.1200E+02
    -10.235  0.0000E+00  0.1200E+02
    -10.215  0.0000E+00  0.1200E+02
    -10.195  0.0000E+00  0.1200E+02
    -10.175  0.0000E+00  0.1200E+02
    -10.155  0.0000E+00  0.1200E+02
    -10.135  0.0000E+00  0.1200E+02
    -10.115  0.0000E+00  0.1200E+02
    -10.095  0.0000E+00  0.1200E+02
    -10.075  0.0000E+00  0.1200E+02
    -10.055  0.0000E+00  0.1200E+02
    -10.035  0.0000E+00  0.1200E+02
    -10.015  0.0000E+00  0.1200E+02
     -9.995  0.0000E+00  0.1200E+02
     -9.975  0.0000E+00  0.1200E+02
     -9.955  0.0000E+00  0.1200E+02
     -9.935  0.0000E+00  0.1200E+02
     -9.915  0.0000E+00  0.1200E+02
     -9.895  0.0000E+00  0.1200E+02
     -9.875  0.0000E+00  0.1200E+02
     -9.855  0.0000E+00  0.1200E+02
     -9.835  0.0000E+00  0.1200E+02
     -9.815  0.0000E+00  0.1200E+02
     -9.795  0.0000E+00  0.1200E+02
     -9.775  0.0000E+00  0.1200E+02
     -9.755  0.0000E+00  0.1200E+02
     -9.735  0.0000E+00  0.1200E+02
     -9.715  0.0000E+00  0.1200E+02
     -9.695  0.0000E+00  0.1200E+02
     -9.675  0.0000E+00  0.1200E+02
     -9.655  0.0000E+00  0.1200E+02
     -9.635  0.0000E+00  0.1200E+02
     -9.615  0.0000E+00  0.1200E+02
     -9.595  0.0000E+00  0.1200E+02
     -9.575  0.0000E+00  0.1200E+02
     -9.555  0.0000E+00  0.1200E+02
     -9.535  0.0000E+00  0.1200E+02
     -9.515  0.0000E+00  0.1200E+02
     -9.495  0.0000E+00  0.1200E+02
     -9.475  0.0000E+00  0.1200E+02
     -9.455  0.0000E+00  0.1200E+02
     -9.435  0.0000E+00  0.1200E+02
     -9.415  0.0000E+00  0.1200E+02
     -9.395  0.0000E+00  0.1200E+02
     -9.375  0.0000E+00  0.1200E+02
     -9.355  0.0000E+00  0.1200E+02
     -9.335  0.0000E+00  0.1200E+02
     -9.315  0.0000E+00  0.1200E+02
     -9.295  0.0000E+00  0.1200E+02
     -9.275  0.0000E+00  0.1200E+02
     -9.255  0.0000E+00  0.1200E+02
     -9.235  0.0000E+00  0.1200E+02
     -9.215  0.0000E+00  0.1200E+02
     -9.195  0.0000E+00  0.1200E+02
     -9.175  0.0000E+00  0.1200E+02
     -9.155  0.0000E+00  0.1200E+02
     -9.135  0.0000E+00  0.1200E+02
     -9.115  0.0000E+00  0.1200E+02
     -9.095  0.0000E+00  0.1200E+02
     -9.075  0.0000E+00  0.1200E+02
     -9.055  0.0000E+00  0.1200E+02
     -9.035  0.0000E+00  0.1200E+02
     -9.015  0.0000E+00  0.1200E+02
     -8.994  0.0000E+00  0.1200E+02
     -8.974  0.0000E+00  0.1200E+02
     -8.954  0.0000E+00  0.1200E+02
     -8.934  0.0000E+00  0.1200E+02
     -8.914  0.0000E+00  0.1200E+02
     -8.894  0.0000E+00  0.1200E+02
     -8.874  0.0000E+00  0.1200E+02
     -8.854  0.0000E+00  0.1200E+02
     -8.834  0.0000E+00  0.1200E+02
     -8.814  0.0000E+00  0.1200E+02
     -8.794  0.0000E+00  0.1200E+02
     -8.774  0.0000E+00  0.1200E+02
     -8.754  0.0000E+00  0.1200E+02
     -8.734  0.0000E+00  0.1200E+02
     -8.714  0.0000E+00  0.1200E+02
     -8.694  0.0000E+00  0.1200E+02
     -8.674  0.0000E+00  0.1200E+02
     -8.654  0.0000E+00  0.1200E+02
     -8.634  0.0000E+00  0.1200E+02
     -8.614  0.0000E+00  0.1200E+02
     -8.594  0.0000E+00  0.1200E+02
     -8.574  0.0000E+00  0.1200E+02
     -8.554  0.0000E+00  0.1200E+02
     -8.534  0.0000E+00  0.1200E+02
     -8.514  0.0000E+00  0.1200E+02
     -8.494  0.0000E+00  0.1200E+02
     -8.474  0.0000E+00  0.1200E+02
     -8.454  0.0000E+00  0.1200E+02
     -8.434  0.0000E+00  0.1200E+02
     -8.414  0.0000E+00  0.1200E+02
     -8.394  0.0000E+00  0.1200E+02
     -8.374  0.0000E+00  0.1200E+02
     -8.354  0.0000E+00  0.1200E+02
     -8.334  0.0000E+00  0.1200E+02
     -8.314  0.0000E+00  0.1200E+02
     -8.294  0.0000E+00  0.1200E+02
     -8.274  0.0000E+00  0.1200E+02
     -8.254  0.1489E-02  0.1200E+02
     -8.234  0.2459E-01  0.1200E+02
     -8.214  0.7564E-01  0.1200E+02
     -8.194  0.1546E+00  0.1200E+02
     -8.174  0.2337E+00  0.1201E+02
     -8.154  0.2742E+00  0.1201E+02
     -8.134  0.2969E+00  0.1202E+02
     -8.114  0.3016E+00  0.1202E+02
     -8.094  0.3323E+00  0.1203E+02
     -8.074  0.3671E+00  0.1204E+02
     -8.054  0.4033E+00  0.1205E+02
     -8.034  0.4404E+00  0.1205E+02
     -8.014  0.4746E+00  0.1206E+02
     -7.994  0.5044E+00  0.1207E+02
     -7.974  0.5297E+00  0.1208E+02
     -7.954  0.5547E+00  0.1209E+02
     -7.934  0.5812E+00  0.1211E+02
     -7.914  0.6085E+00  0.1212E+02
     -7.894  0.6362E+00  0.1213E+02
     -7.874  0.6660E+00  0.1214E+02
     -7.854  0.6959E+00  0.1216E+02
     -7.834  0.7260E+00  0.1217E+02
     -7.814  0.7563E+00  0.1219E+02
     -7.794  0.7868E+00  0.1220E+02
     -7.774  0.8192E+00  0.1222E+02
     -7.754  0.8547E+00  0.1223E+02
     -7.734  0.8970E+00  0.1225E+02
     -7.714  0.9382E+00  0.1227E+02
     -7.694  0.9801E+00  0.1229E+02
     -7.674  0.1023E+01  0.1231E+02
     -7.654  0.1067E+01  0.1233E+02
     -7.634  0.1114E+01  0.1235E+02
     -7.614  0.1163E+01  0.1237E+02
     -7.594  0.1213E+01  0.1240E+02
     -7.574  0.1275E+01  0.1242E+02
     -7.554  0.1349E+01  0.1245E+02
     -7.534  0.1430E+01  0.1248E+02
     -7.514  0.1521E+01  0.1251E+02
     -7.494  0.1620E+01  0.1254E+02
     -7.474  0.1730E+01  0.1257E+02
     -7.454  0.1853E+01  0.1261E+02
     -7.434  0.1993E+01  0.1265E+02
     -7.414  0.2156E+01  0.1269E+02
     -7.394  0.2562E+01  0.1273E+02
     -7.374  0.3106E+01  0.1279E+02
     -7.354  0.5128E+01  0.1287E+02
     -7.334  0.9782E+01  0.1302E+02
     -7.314  0.1288E+02  0.1326E+02
     -7.294  0.5973E+01  0.1344E+02
     -7.274  0.4418E+01  0.1354E+02
     -7.254  0.3433E+01  0.1362E+02
     -7.234  0.2931E+01  0.1368E+02
     -7.214  0.2545E+01  0.1373E+02
     -7.194  0.2167E+01  0.1378E+02
     -7.174  0.1920E+01  0.1382E+02
     -7.154  0.1209E+01  0.1385E+02
     -7.134  0.1062E+01  0.1388E+02
     -7.114  0.9351E+00  0.1390E+02
     -7.094  0.8219E+00  0.1391E+02
     -7.074  0.7224E+00  0.1393E+02
     -7.054  0.6385E+00  0.1394E+02
     -7.034  0.5704E+00  0.1396E+02
     -7.014  0.5181E+00  0.1397E+02
     -6.993  0.4815E+00  0.1398E+02
     -6.973  0.4608E+00  0.1399E+02
     -6.953  0.4211E+00  0.1399E+02
     -6.933  0.4015E+00  0.1400E+02
     -6.913  0.3836E+00  0.1401E+02
     -6.893  0.3674E+00  0.1402E+02
     -6.873  0.3530E+00  0.1403E+02
     -6.853  0.3403E+00  0.1403E+02
     -6.833  0.3294E+00  0.1404E+02
     -6.813  0.3063E+00  0.1405E+02
     -6.793  0.3336E+00  0.1405E+02
     -6.773  0.3620E+00  0.1406E+02
     -6.753  0.3916E+00  0.1407E+02
     -6.733  0.4266E+00  0.1407E+02
     -6.713  0.4684E+00  0.1408E+02
     -6.693  0.5152E+00  0.1409E+02
     -6.673  0.5668E+00  0.1410E+02
     -6.653  0.6131E+00  0.1412E+02
     -6.633  0.6554E+00  0.1413E+02
     -6.613  0.6918E+00  0.1414E+02
     -6.593  0.7239E+00  0.1416E+02
     -6.573  0.7520E+00  0.1417E+02
     -6.553  0.7765E+00  0.1419E+02
     -6.533  0.8259E+00  0.1420E+02
     -6.513  0.8950E+00  0.1422E+02
     -6.493  0.9771E+00  0.1424E+02
     -6.473  0.1063E+01  0.1426E+02
     -6.453  0.1130E+01  0.1428E+02
     -6.433  0.1241E+01  0.1430E+02
     -6.413  0.1352E+01  0.1433E+02
     -6.393  0.1481E+01  0.1436E+02
     -6.373  0.1672E+01  0.1439E+02
     -6.353  0.1906E+01  0.1443E+02
     -6.333  0.2180E+01  0.1447E+02
     -6.313  0.2517E+01  0.1451E+02
     -6.293  0.2933E+01  0.1457E+02
     -6.273  0.3442E+01  0.1463E+02
     -6.253  0.3666E+01  0.1470E+02
     -6.233  0.4560E+01  0.1479E+02
     -6.213  0.5341E+01  0.1489E+02
     -6.193  0.6771E+01  0.1500E+02
     -6.173  0.5410E+01  0.1513E+02
     -6.153  0.4331E+01  0.1522E+02
     -6.133  0.3591E+01  0.1530E+02
     -6.113  0.3101E+01  0.1537E+02
     -6.093  0.2700E+01  0.1543E+02
     -6.073  0.2373E+01  0.1548E+02
     -6.053  0.2092E+01  0.1552E+02
     -6.033  0.1895E+01  0.1556E+02
     -6.013  0.1734E+01  0.1560E+02
     -5.993  0.1599E+01  0.1563E+02
     -5.973  0.1485E+01  0.1566E+02
     -5.953  0.1378E+01  0.1569E+02
     -5.933  0.1279E+01  0.1572E+02
     -5.913  0.1180E+01  0.1574E+02
     -5.893  0.1119E+01  0.1577E+02
     -5.873  0.9852E+00  0.1579E+02
     -5.853  0.7595E+00  0.1581E+02
     -5.833  0.7286E+00  0.1582E+02
     -5.813  0.6968E+00  0.1584E+02
     -5.793  0.6643E+00  0.1585E+02
     -5.773  0.6309E+00  0.1586E+02
     -5.753  0.5971E+00  0.1587E+02
     -5.733  0.5612E+00  0.1589E+02
     -5.713  0.5250E+00  0.1590E+02
     -5.693  0.4899E+00  0.1591E+02
     -5.673  0.4558E+00  0.1592E+02
     -5.653  0.4222E+00  0.1592E+02
     -5.633  0.3906E+00  0.1593E+02
     -5.613  0.3620E+00  0.1594E+02
     -5.593  0.3344E+00  0.1595E+02
     -5.573  0.3077E+00  0.1595E+02
     -5.553  0.2819E+00  0.1596E+02
     -5.533  0.2571E+00  0.1597E+02
     -5.513  0.2332E+00  0.1597E+02
     -5.493  0.2103E+00  0.1597E+02
     -5.473  0.1884E+00  0.1598E+02
     -5.453  0.2321E+01  0.1601E+02
     -5.433  0.2333E+01  0.1605E+02
     -5.413  0.2259E+01  0.1610E+02
     -5.393  0.2444E+01  0.1615E+02
     -5.373  0.2539E+01  0.1620E+02
     -5.353  0.2858E+01  0.1625E+02
     -5.333  0.3534E+01  0.1632E+02
     -5.313  0.3838E+01  0.1639E+02
     -5.293  0.3694E+01  0.1647E+02
     -5.273  0.3399E+01  0.1654E+02
     -5.253  0.3116E+01  0.1660E+02
     -5.233  0.3023E+01  0.1666E+02
     -5.213  0.2939E+01  0.1672E+02
     -5.193  0.2839E+01  0.1678E+02
     -5.173  0.2725E+01  0.1684E+02
     -5.153  0.2626E+01  0.1689E+02
     -5.133  0.2544E+01  0.1694E+02
     -5.113  0.2462E+01  0.1699E+02
     -5.093  0.2379E+01  0.1704E+02
     -5.073  0.2307E+01  0.1709E+02
     -5.053  0.2240E+01  0.1713E+02
     -5.033  0.2180E+01  0.1718E+02
     -5.013  0.2128E+01  0.1722E+02
     -4.992  0.2108E+01  0.1726E+02
     -4.972  0.2091E+01  0.1731E+02
     -4.952  0.2076E+01  0.1735E+02
     -4.932  0.2061E+01  0.1739E+02
     -4.912  0.1998E+01  0.1743E+02
     -4.892  0.1917E+01  0.1747E+02
     -4.872  0.1828E+01  0.1751E+02
     -4.852  0.1743E+01  0.1754E+02
     -4.832  0.1656E+01  0.1758E+02
     -4.812  0.1565E+01  0.1761E+02
     -4.792  0.1477E+01  0.1764E+02
     -4.772  0.1393E+01  0.1767E+02
     -4.752  0.1308E+01  0.1769E+02
     -4.732  0.1215E+01  0.1772E+02
     -4.712  0.1141E+01  0.1774E+02
     -4.692  0.1085E+01  0.1776E+02
     -4.672  0.1038E+01  0.1779E+02
     -4.652  0.9970E+00  0.1781E+02
     -4.632  0.9550E+00  0.1783E+02
     -4.612  0.9123E+00  0.1784E+02
     -4.592  0.8687E+00  0.1786E+02
     -4.572  0.8216E+00  0.1788E+02
     -4.552  0.7656E+00  0.1790E+02
     -4.532  0.7150E+00  0.1791E+02
     -4.512  0.7275E+00  0.1792E+02
     -4.492  0.1109E+01  0.1794E+02
     -4.472  0.1581E+01  0.1797E+02
     -4.452  0.1949E+01  0.1800E+02
     -4.432  0.2487E+01  0.1805E+02
     -4.412  0.3178E+01  0.1810E+02
     -4.392  0.4326E+01  0.1818E+02
     -4.372  0.1580E+02  0.1835E+02
     -4.352  0.2139E+02  0.1876E+02
     -4.332  0.1861E+02  0.1917E+02
     -4.312  0.1323E+02  0.1946E+02
     -4.292  0.9715E+01  0.1969E+02
     -4.272  0.8448E+01  0.1986E+02
     -4.252  0.8979E+01  0.2003E+02
     -4.232  0.9192E+01  0.2021E+02
     -4.212  0.9365E+01  0.2040E+02
     -4.192  0.8512E+01  0.2058E+02
     -4.172  0.8074E+01  0.2075E+02
     -4.152  0.5995E+01  0.2088E+02
     -4.132  0.5191E+01  0.2099E+02
     -4.112  0.4962E+01  0.2109E+02
     -4.092  0.4886E+01  0.2119E+02
     -4.072  0.5022E+01  0.2129E+02
     -4.052  0.5272E+01  0.2139E+02
     -4.032  0.6733E+01  0.2151E+02
     -4.012  0.6959E+01  0.2166E+02
     -3.992  0.6535E+01  0.2179E+02
     -3.972  0.6000E+01  0.2192E+02
     -3.952  0.4624E+01  0.2202E+02
     -3.932  0.1860E+01  0.2209E+02
     -3.912  0.1268E+01  0.2211E+02
     -3.892  0.3234E+01  0.2216E+02
     -3.872  0.9124E+01  0.2228E+02
     -3.852  0.7360E+01  0.2245E+02
     -3.832  0.7916E+01  0.2260E+02
     -3.812  0.8337E+01  0.2276E+02
     -3.792  0.7488E+01  0.2292E+02
     -3.772  0.6667E+01  0.2306E+02
     -3.752  0.5579E+01  0.2318E+02
     -3.732  0.4970E+01  0.2329E+02
     -3.712  0.4505E+01  0.2338E+02
     -3.692  0.4176E+01  0.2347E+02
     -3.672  0.3941E+01  0.2355E+02
     -3.652  0.3666E+01  0.2363E+02
     -3.632  0.3339E+01  0.2370E+02
     -3.612  0.2913E+01  0.2376E+02
     -3.592  0.2632E+01  0.2382E+02
     -3.572  0.2468E+01  0.2387E+02
     -3.552  0.2202E+01  0.2391E+02
     -3.532  0.1386E+01  0.2395E+02
     -3.512  0.9873E+00  0.2397E+02
     -3.492  0.5884E+00  0.2399E+02