  COHP#    atomMU    atomNU   distance   translation   ICOHP (at) eF 
                                                          for spin 1 
      1       Si3        O5    4.11607     0   0   0        -0.02308 
      1    Si3_3s     O5_2s    4.11607     0   0   0        -0.00149 
      1    Si3_3s   O5_2p_y    4.11607     0   0   0         0.00001 
      1    Si3_3s   O5_2p_z    4.11607     0   0   0        -0.00085 
      1    Si3_3s   O5_2p_x    4.11607     0   0   0        -0.00026 
      1  Si3_3p_y     O5_2s    4.11607     0   0   0        -0.00129 
      1  Si3_3p_y   O5_2p_y    4.11607     0   0   0        -0.00357 
      1  Si3_3p_y   O5_2p_z    4.11607     0   0   0        -0.00013 
      1  Si3_3p_y   O5_2p_x    4.11607     0   0   0        -0.00004 
      1  Si3_3p_z     O5_2s    4.11607     0   0   0        -0.00547 
      1  Si3_3p_z   O5_2p_y    4.11607     0   0   0        -0.00248 
      1  Si3_3p_z   O5_2p_z    4.11607     0   0   0        -0.00026 
      1  Si3_3p_z   O5_2p_x    4.11607     0   0   0        -0.00279 
      1  Si3_3p_x     O5_2s    4.11607     0   0   0         0.00000 
      1  Si3_3p_x   O5_2p_y    4.11607     0   0   0        -0.00298 
      1  Si3_3p_x   O5_2p_z    4.11607     0   0   0        -0.00138 
      1  Si3_3p_x   O5_2p_x    4.11607     0   0   0        -0.00012 