 vasp.6.4.3 19Mar24 (build Jul  1 2025 23:09:51) complex                         
 executed on             LinuxGNU date 2025.12.09  13:39:24
 running    1 mpi-ranks, with   12 threads/rank, on    1 nodes
 distrk:  each k-point on    1 cores,    1 groups
 distr:  one band on NCORE=   1 cores,    1 groups


--------------------------------------------------------------------------------------------------------


 INCAR:
   GGA = PE
   PREC = Accurate
   ENCUT = 520
   KSPACING = 0.15
   ISMEAR = -5
   EDIFF = 1e-6
   NELM = 120
   NELMIN = 8
   NBANDS = 36
   ISYM = 0
   ICHARG = 11
   LORBIT = 11
   EMIN = -20
   EMAX = +20
   NEDOS = 2000

 POTCAR:    PAW_PBE Si 05Jan2001                  
 POTCAR:    PAW_PBE O 08Apr2002                   
 POTCAR:    PAW_PBE Si 05Jan2001                  
   SHA256 =  79d9987ad8750f624c4d6acb2a16d13abf6a777132adc04dc6c8399be72b42bb Si/POTCAR             
   COPYR  = (c) Copyright 05Jan2001 Georg Kresse                                                    
   COPYR  = This file is part of the software VASP. Any use, copying, and all other rights are regul
   COPYR  = If you do not have a valid VASP license, you may not use, copy or distribute this file. 
   VRHFIN =Si: s2p2                                                                                 
   LEXCH  = PE                                                                                      
   EATOM  =   103.0669 eV,    7.5752 Ry                                                             
                                                                                                    
   TITEL  = PAW_PBE Si 05Jan2001                                                                    
   LULTRA =        F    use ultrasoft PP ?                                                          
   IUNSCR =        1    unscreen: 0-lin 1-nonlin 2-no                                               
   RPACOR =    1.500    partial core radius                                                         
   POMASS =   28.085; ZVAL   =    4.000    mass and valenz                                          
   RCORE  =    1.900    outmost cutoff radius                                                       
   RWIGS  =    2.480; RWIGS  =    1.312    wigner-seitz radius (au A)                               
   ENMAX  =  245.345; ENMIN  =  184.009 eV                                                          
   ICORE  =        2    local potential                                                             
   LCOR   =        T    correct aug charges                                                         
   LPAW   =        T    paw PP                                                                      
   EAUG   =  322.069                                                                                
   DEXC   =    0.000                                                                                
   RMAX   =    1.950    core radius for proj-oper                                                   
   RAUG   =    1.300    factor for augmentation sphere                                              
   RDEP   =    1.993    radius for radial grids                                                     
   RDEPT  =    1.837    core radius for aug-charge                                                  
                                                                                                    
   Atomic configuration                                                                             
    6 entries                                                                                       
     n  l   j            E        occ.                                                              
     1  0  0.50     -1785.8828   2.0000                                                             
     2  0  0.50      -139.4969   2.0000                                                             
     2  1  1.50       -95.5546   6.0000                                                             
     3  0  0.50       -10.8127   2.0000                                                             
     3  1  0.50        -4.0811   2.0000                                                             
     3  2  1.50        -4.0817   0.0000                                                             
   Description                                                                                      
     l       E           TYP  RCUT    TYP  RCUT                                                     
     0    -10.8127223     23  1.900                                                                 
     0     -7.6451159     23  1.900                                                                 
     1     -4.0811372     23  1.900                                                                 
     1      2.4879257     23  1.900                                                                 
     2     -4.0817478      7  1.900                                                                 
  local pseudopotential read in
  partial core-charges read in
  partial kinetic energy density read in
  atomic valenz-charges read in
  non local Contribution for L=           0  read in
    real space projection operators read in
  non local Contribution for L=           0  read in
    real space projection operators read in
  non local Contribution for L=           1  read in
    real space projection operators read in
  non local Contribution for L=           1  read in
    real space projection operators read in
    PAW grid and wavefunctions read in

   number of l-projection  operators is LMAX  =           4
   number of lm-projection operators is LMMAX =           8

 POTCAR:    PAW_PBE O 08Apr2002                   
   SHA256 =  818f92134a0a090dccd8ba1447fa70422a3b330e708bb4f08108d8ae51209ddf O/POTCAR              
   COPYR  = (c) Copyright 08Apr2002 Georg Kresse                                                    
   COPYR  = This file is part of the software VASP. Any use, copying, and all other rights are regul
   COPYR  = If you do not have a valid VASP license, you may not use, copy or distribute this file. 
   VRHFIN =O: s2p4                                                                                  
   LEXCH  = PE                                                                                      
   EATOM  =   432.3788 eV,   31.7789 Ry                                                             
                                                                                                    
   TITEL  = PAW_PBE O 08Apr2002                                                                     
   LULTRA =        F    use ultrasoft PP ?                                                          
   IUNSCR =        1    unscreen: 0-lin 1-nonlin 2-no                                               
   RPACOR =    1.200    partial core radius                                                         
   POMASS =   16.000; ZVAL   =    6.000    mass and valenz                                          
   RCORE  =    1.520    outmost cutoff radius                                                       
   RWIGS  =    1.550; RWIGS  =    0.820    wigner-seitz radius (au A)                               
   ENMAX  =  400.000; ENMIN  =  300.000 eV                                                          
   ICORE  =        2    local potential                                                             
   LCOR   =        T    correct aug charges                                                         
   LPAW   =        T    paw PP                                                                      
   EAUG   =  605.392                                                                                
   DEXC   =    0.000                                                                                
   RMAX   =    1.553    core radius for proj-oper                                                   
   RAUG   =    1.300    factor for augmentation sphere                                              
   RDEP   =    1.550    radius for radial grids                                                     
   RDEPT  =    1.329    core radius for aug-charge                                                  
                                                                                                    
   Atomic configuration                                                                             
    4 entries                                                                                       
     n  l   j            E        occ.                                                              
     1  0  0.50      -514.6923   2.0000                                                             
     2  0  0.50       -23.9615   2.0000                                                             
     2  1  0.50        -9.0305   4.0000                                                             
     3  2  1.50        -9.5241   0.0000                                                             
   Description                                                                                      
     l       E           TYP  RCUT    TYP  RCUT                                                     
     0    -23.9615318     23  1.200                                                                 
     0     -9.5240782     23  1.200                                                                 
     1     -9.0304911     23  1.520                                                                 
     1      8.1634956     23  1.520                                                                 
     2     -9.5240782      7  1.500                                                                 
  local pseudopotential read in
  partial core-charges read in
  partial kinetic energy density read in
  kinetic energy density of atom read in
  atomic valenz-charges read in
  non local Contribution for L=           0  read in
    real space projection operators read in
  non local Contribution for L=           0  read in
    real space projection operators read in
  non local Contribution for L=           1  read in
    real space projection operators read in
  non local Contribution for L=           1  read in
    real space projection operators read in
    PAW grid and wavefunctions read in

   number of l-projection  operators is LMAX  =           4
   number of lm-projection operators is LMMAX =           8

  PAW_PBE Si 05Jan2001                  :
 energy of atom  1       EATOM= -103.0669
 kinetic energy error for atom=    0.0005 (will be added to EATOM!!)
  PAW_PBE O 08Apr2002                   :
 energy of atom  2       EATOM= -432.3788
 kinetic energy error for atom=    0.0208 (will be added to EATOM!!)


 POSCAR: Si3 O6
  positions in direct lattice
  No initial velocities read in


 exchange-correlation table for PE
   RHO(1)=    0.500       N(1)  =     2000
   RHO(2)=  100.500       N(2)  =     4000



--------------------------------------------------------------------------------------------------------


 ion  position               nearest neighbor table
   1  0.000  0.469  0.333-   6 1.61   9 1.61   4 1.62   8 1.62   3 3.06   3 3.06   2 3.06   2 3.06

   2  0.531  0.531  0.000-   5 1.61   8 1.61   7 1.62   6 1.62   1 3.06   3 3.06   1 3.06   3 3.06

   3  0.469  0.000  0.667-   7 1.61   4 1.61   5 1.62   9 1.62   1 3.06   1 3.06   2 3.06   2 3.06

   4  0.145  0.731  0.548-   3 1.61   1 1.62
   5  0.587  0.855  0.881-   2 1.61   3 1.62
   6  0.269  0.413  0.214-   1 1.61   2 1.62
   7  0.413  0.269  0.786-   3 1.61   2 1.62
   8  0.855  0.587  0.119-   2 1.61   1 1.62
   9  0.731  0.145  0.452-   1 1.61   3 1.62


IMPORTANT INFORMATION: All symmetrisations will be switched off!
NOSYMM: (Re-)initialisation of all symmetry stuff for point group C_1.


----------------------------------------------------------------------------------------

                                     Primitive cell                                     

  volume of cell :     113.7058

  direct lattice vectors                    reciprocal lattice vectors
     2.458278904 -4.257863960  0.000000000     0.203394334 -0.117429773  0.000000000
     2.458278904  4.257863960  0.000000000     0.203394334  0.117429773 -0.000000000
     0.000000000  0.000000000  5.431625250    -0.000000000  0.000000000  0.184106958

  length of vectors
     4.916557807  4.916557807  5.431625250     0.234859547  0.234859547  0.184106958

  position of ions in fractional coordinates (direct lattice)
     1.000000000  0.468798230  0.333333333
     0.531201770  0.531201770  0.000000000
     0.468798230  1.000000000  0.666666667
     0.144538360  0.731439790  0.547819600
     0.586901430  0.855461640  0.881152933
     0.268560210  0.413098570  0.214486267
     0.413098570  0.268560210  0.785513733
     0.855461640  0.586901430  0.118847067
     0.731439790  0.144538360  0.452180400

  ion indices of the primitive-cell ions
   primitive index   ion index
                 1           1
                 2           2
                 3           3
                 4           4
                 5           5
                 6           6
                 7           7
                 8           8
                 9           9

----------------------------------------------------------------------------------------


 -----------------------------------------------------------------------------
|                                                                             |
|           W    W    AA    RRRRR   N    N  II  N    N   GGGG   !!!           |
|           W    W   A  A   R    R  NN   N  II  NN   N  G    G  !!!           |
|           W    W  A    A  R    R  N N  N  II  N N  N  G       !!!           |
|           W WW W  AAAAAA  RRRRR   N  N N  II  N  N N  G  GGG   !            |
|           WW  WW  A    A  R   R   N   NN  II  N   NN  G    G                |
|           W    W  A    A  R    R  N    N  II  N    N   GGGG   !!!           |
|                                                                             |
|     The requested file  could not be found or opened for reading            |
|     k-point information. Automatic k-point generation is used as a          |
|     fallback, which may lead to unwanted results.                           |
|                                                                             |
 -----------------------------------------------------------------------------



Automatic generation of k-mesh.
 Grid dimensions derived from KSPACING:
 generate k-points for:   10   10    8

 Generating k-lattice:

  Cartesian coordinates                     Fractional coordinates (reciprocal lattice)
     0.020339433 -0.011742977  0.000000000     0.100000000  0.000000000  0.000000000
     0.020339433  0.011742977 -0.000000000     0.000000000  0.100000000  0.000000000
    -0.000000000  0.000000000  0.023013370     0.000000000  0.000000000  0.125000000

  Length of vectors
     0.023485955  0.023485955  0.023013370

  Shift w.r.t. Gamma in fractional coordinates (k-lattice)
     0.000000000  0.000000000  0.000000000

 TETIRR: Found   2400 inequivalent tetrahedra from     4800
 
 Subroutine IBZKPT returns following result:
 ===========================================
 
 Found    404 irreducible k-points:
 
 Following reciprocal coordinates:
            Coordinates               Weight
  0.000000  0.000000  0.000000      1.000000
  0.100000  0.000000  0.000000      2.000000
  0.000000  0.100000  0.000000      2.000000
 -0.100000  0.100000  0.000000      2.000000
  0.200000  0.000000  0.000000      2.000000
  0.000000  0.200000  0.000000      2.000000
 -0.200000  0.200000  0.000000      2.000000
  0.300000  0.000000  0.000000      2.000000
  0.000000  0.300000  0.000000      2.000000
 -0.300000  0.300000  0.000000      2.000000
  0.400000  0.000000  0.000000      2.000000
  0.000000  0.400000  0.000000      2.000000
 -0.400000  0.400000  0.000000      2.000000
  0.500000  0.000000  0.000000      1.000000
  0.000000  0.500000  0.000000      1.000000
  0.500000  0.500000  0.000000      1.000000
  0.100000  0.100000  0.000000      2.000000
 -0.100000  0.200000  0.000000      2.000000
 -0.200000  0.100000  0.000000      2.000000
  0.200000  0.100000  0.000000      2.000000
 -0.100000  0.300000  0.000000      2.000000
 -0.300000  0.200000  0.000000      2.000000
 -0.200000  0.300000  0.000000      2.000000
  0.100000  0.200000  0.000000      2.000000
  0.300000 -0.100000  0.000000      2.000000
  0.300000  0.100000  0.000000      2.000000
 -0.100000  0.400000  0.000000      2.000000
 -0.400000  0.300000  0.000000      2.000000
 -0.300000  0.400000  0.000000      2.000000
  0.100000  0.300000  0.000000      2.000000
  0.400000 -0.100000  0.000000      2.000000
  0.400000  0.100000  0.000000      2.000000
 -0.100000  0.500000  0.000000      2.000000
  0.500000  0.400000  0.000000      2.000000
 -0.400000  0.500000  0.000000      2.000000
  0.100000  0.400000  0.000000      2.000000
  0.500000 -0.100000  0.000000      2.000000
  0.200000  0.200000  0.000000      2.000000
 -0.200000  0.400000  0.000000      2.000000
 -0.400000  0.200000  0.000000      2.000000
  0.300000  0.200000  0.000000      2.000000
 -0.200000  0.500000  0.000000      2.000000
  0.500000  0.300000  0.000000      2.000000
 -0.300000  0.500000  0.000000      2.000000
  0.200000  0.300000  0.000000      2.000000
  0.500000 -0.200000  0.000000      2.000000
  0.400000  0.200000  0.000000      2.000000
 -0.200000 -0.400000  0.000000      2.000000
  0.400000  0.400000  0.000000      2.000000
  0.300000  0.300000  0.000000      2.000000
 -0.300000 -0.400000  0.000000      2.000000
  0.400000  0.300000  0.000000      2.000000
  0.000000  0.000000  0.125000      2.000000
  0.100000  0.000000  0.125000      2.000000
  0.000000  0.100000  0.125000      2.000000
 -0.100000  0.100000  0.125000      2.000000
 -0.100000  0.000000  0.125000      2.000000
  0.000000 -0.100000  0.125000      2.000000
  0.100000 -0.100000  0.125000      2.000000
  0.200000  0.000000  0.125000      2.000000
  0.000000  0.200000  0.125000      2.000000
 -0.200000  0.200000  0.125000      2.000000
 -0.200000  0.000000  0.125000      2.000000
  0.000000 -0.200000  0.125000      2.000000
  0.200000 -0.200000  0.125000      2.000000
  0.300000  0.000000  0.125000      2.000000
  0.000000  0.300000  0.125000      2.000000
 -0.300000  0.300000  0.125000      2.000000
 -0.300000  0.000000  0.125000      2.000000
  0.000000 -0.300000  0.125000      2.000000
  0.300000 -0.300000  0.125000      2.000000
  0.400000  0.000000  0.125000      2.000000
  0.000000  0.400000  0.125000      2.000000
 -0.400000  0.400000  0.125000      2.000000
 -0.400000  0.000000  0.125000      2.000000
  0.000000 -0.400000  0.125000      2.000000
  0.400000 -0.400000  0.125000      2.000000
  0.500000  0.000000  0.125000      2.000000
  0.000000  0.500000  0.125000      2.000000
  0.500000  0.500000  0.125000      2.000000
  0.100000  0.100000  0.125000      2.000000
 -0.100000  0.200000  0.125000      2.000000
 -0.200000  0.100000  0.125000      2.000000
 -0.100000 -0.100000  0.125000      2.000000
  0.100000 -0.200000  0.125000      2.000000
  0.200000 -0.100000  0.125000      2.000000
  0.200000  0.100000  0.125000      2.000000
 -0.100000  0.300000  0.125000      2.000000
 -0.300000  0.200000  0.125000      2.000000
 -0.200000 -0.100000  0.125000      2.000000
  0.100000 -0.300000  0.125000      2.000000
  0.300000 -0.200000  0.125000      2.000000
 -0.200000  0.300000 -0.125000      2.000000
  0.100000  0.200000 -0.125000      2.000000
  0.300000 -0.100000 -0.125000      2.000000
  0.200000 -0.300000 -0.125000      2.000000
 -0.100000 -0.200000 -0.125000      2.000000
 -0.300000  0.100000 -0.125000      2.000000
  0.300000  0.100000  0.125000      2.000000
 -0.100000  0.400000  0.125000      2.000000
 -0.400000  0.300000  0.125000      2.000000
 -0.300000 -0.100000  0.125000      2.000000
  0.100000 -0.400000  0.125000      2.000000
  0.400000 -0.300000  0.125000      2.000000
 -0.300000  0.400000 -0.125000      2.000000
  0.100000  0.300000 -0.125000      2.000000
  0.400000 -0.100000 -0.125000      2.000000
  0.300000 -0.400000 -0.125000      2.000000
 -0.100000 -0.300000 -0.125000      2.000000
 -0.400000  0.100000 -0.125000      2.000000
  0.400000  0.100000  0.125000      2.000000
 -0.100000  0.500000  0.125000      2.000000
  0.500000  0.400000  0.125000      2.000000
 -0.400000 -0.100000  0.125000      2.000000
  0.100000  0.500000  0.125000      2.000000
  0.500000 -0.400000  0.125000      2.000000
 -0.400000  0.500000 -0.125000      2.000000
  0.100000  0.400000 -0.125000      2.000000
  0.500000 -0.100000 -0.125000      2.000000
  0.400000  0.500000 -0.125000      2.000000
 -0.100000 -0.400000 -0.125000      2.000000
  0.500000  0.100000 -0.125000      2.000000
  0.200000  0.200000  0.125000      2.000000
 -0.200000  0.400000  0.125000      2.000000
 -0.400000  0.200000  0.125000      2.000000
 -0.200000 -0.200000  0.125000      2.000000
  0.200000 -0.400000  0.125000      2.000000
  0.400000 -0.200000  0.125000      2.000000
  0.300000  0.200000  0.125000      2.000000
 -0.200000  0.500000  0.125000      2.000000
  0.500000  0.300000  0.125000      2.000000
 -0.300000 -0.200000  0.125000      2.000000
  0.200000  0.500000  0.125000      2.000000
  0.500000 -0.300000  0.125000      2.000000
 -0.300000  0.500000 -0.125000      2.000000
  0.200000  0.300000 -0.125000      2.000000
  0.500000 -0.200000 -0.125000      2.000000
  0.300000  0.500000 -0.125000      2.000000
 -0.200000 -0.300000 -0.125000      2.000000
  0.500000  0.200000 -0.125000      2.000000
  0.400000  0.200000  0.125000      2.000000
 -0.200000 -0.400000  0.125000      2.000000
  0.400000  0.400000  0.125000      2.000000
 -0.400000 -0.200000  0.125000      2.000000
  0.200000  0.400000  0.125000      2.000000
 -0.400000 -0.400000  0.125000      2.000000
  0.300000  0.300000  0.125000      2.000000
 -0.300000 -0.400000  0.125000      2.000000
  0.400000  0.300000  0.125000      2.000000
 -0.300000 -0.300000  0.125000      2.000000
  0.300000  0.400000  0.125000      2.000000
 -0.400000 -0.300000  0.125000      2.000000
  0.000000  0.000000  0.250000      2.000000
  0.100000  0.000000  0.250000      2.000000
  0.000000  0.100000  0.250000      2.000000
 -0.100000  0.100000  0.250000      2.000000
 -0.100000  0.000000  0.250000      2.000000
  0.000000 -0.100000  0.250000      2.000000
  0.100000 -0.100000  0.250000      2.000000
  0.200000  0.000000  0.250000      2.000000
  0.000000  0.200000  0.250000      2.000000
 -0.200000  0.200000  0.250000      2.000000
 -0.200000  0.000000  0.250000      2.000000
  0.000000 -0.200000  0.250000      2.000000
  0.200000 -0.200000  0.250000      2.000000
  0.300000  0.000000  0.250000      2.000000
  0.000000  0.300000  0.250000      2.000000
 -0.300000  0.300000  0.250000      2.000000
 -0.300000  0.000000  0.250000      2.000000
  0.000000 -0.300000  0.250000      2.000000
  0.300000 -0.300000  0.250000      2.000000
  0.400000  0.000000  0.250000      2.000000
  0.000000  0.400000  0.250000      2.000000
 -0.400000  0.400000  0.250000      2.000000
 -0.400000  0.000000  0.250000      2.000000
  0.000000 -0.400000  0.250000      2.000000
  0.400000 -0.400000  0.250000      2.000000
  0.500000  0.000000  0.250000      2.000000
  0.000000  0.500000  0.250000      2.000000
  0.500000  0.500000  0.250000      2.000000
  0.100000  0.100000  0.250000      2.000000
 -0.100000  0.200000  0.250000      2.000000
 -0.200000  0.100000  0.250000      2.000000
 -0.100000 -0.100000  0.250000      2.000000
  0.100000 -0.200000  0.250000      2.000000
  0.200000 -0.100000  0.250000      2.000000
  0.200000  0.100000  0.250000      2.000000
 -0.100000  0.300000  0.250000      2.000000
 -0.300000  0.200000  0.250000      2.000000
 -0.200000 -0.100000  0.250000      2.000000
  0.100000 -0.300000  0.250000      2.000000
  0.300000 -0.200000  0.250000      2.000000
 -0.200000  0.300000 -0.250000      2.000000
  0.100000  0.200000 -0.250000      2.000000
  0.300000 -0.100000 -0.250000      2.000000
  0.200000 -0.300000 -0.250000      2.000000
 -0.100000 -0.200000 -0.250000      2.000000
 -0.300000  0.100000 -0.250000      2.000000
  0.300000  0.100000  0.250000      2.000000
 -0.100000  0.400000  0.250000      2.000000
 -0.400000  0.300000  0.250000      2.000000
 -0.300000 -0.100000  0.250000      2.000000
  0.100000 -0.400000  0.250000      2.000000
  0.400000 -0.300000  0.250000      2.000000
 -0.300000  0.400000 -0.250000      2.000000
  0.100000  0.300000 -0.250000      2.000000
  0.400000 -0.100000 -0.250000      2.000000
  0.300000 -0.400000 -0.250000      2.000000
 -0.100000 -0.300000 -0.250000      2.000000
 -0.400000  0.100000 -0.250000      2.000000
  0.400000  0.100000  0.250000      2.000000
 -0.100000  0.500000  0.250000      2.000000
  0.500000  0.400000  0.250000      2.000000
 -0.400000 -0.100000  0.250000      2.000000
  0.100000  0.500000  0.250000      2.000000
  0.500000 -0.400000  0.250000      2.000000
 -0.400000  0.500000 -0.250000      2.000000
  0.100000  0.400000 -0.250000      2.000000
  0.500000 -0.100000 -0.250000      2.000000
  0.400000  0.500000 -0.250000      2.000000
 -0.100000 -0.400000 -0.250000      2.000000
  0.500000  0.100000 -0.250000      2.000000
  0.200000  0.200000  0.250000      2.000000
 -0.200000  0.400000  0.250000      2.000000
 -0.400000  0.200000  0.250000      2.000000
 -0.200000 -0.200000  0.250000      2.000000
  0.200000 -0.400000  0.250000      2.000000
  0.400000 -0.200000  0.250000      2.000000
  0.300000  0.200000  0.250000      2.000000
 -0.200000  0.500000  0.250000      2.000000
  0.500000  0.300000  0.250000      2.000000
 -0.300000 -0.200000  0.250000      2.000000
  0.200000  0.500000  0.250000      2.000000
  0.500000 -0.300000  0.250000      2.000000
 -0.300000  0.500000 -0.250000      2.000000
  0.200000  0.300000 -0.250000      2.000000
  0.500000 -0.200000 -0.250000      2.000000
  0.300000  0.500000 -0.250000      2.000000
 -0.200000 -0.300000 -0.250000      2.000000
  0.500000  0.200000 -0.250000      2.000000
  0.400000  0.200000  0.250000      2.000000
 -0.200000 -0.400000  0.250000      2.000000
  0.400000  0.400000  0.250000      2.000000
 -0.400000 -0.200000  0.250000      2.000000
  0.200000  0.400000  0.250000      2.000000
 -0.400000 -0.400000  0.250000      2.000000
  0.300000  0.300000  0.250000      2.000000
 -0.300000 -0.400000  0.250000      2.000000
  0.400000  0.300000  0.250000      2.000000
 -0.300000 -0.300000  0.250000      2.000000
  0.300000  0.400000  0.250000      2.000000
 -0.400000 -0.300000  0.250000      2.000000
  0.000000  0.000000  0.375000      2.000000
  0.100000  0.000000  0.375000      2.000000
  0.000000  0.100000  0.375000      2.000000
 -0.100000  0.100000  0.375000      2.000000
 -0.100000  0.000000  0.375000      2.000000
  0.000000 -0.100000  0.375000      2.000000
  0.100000 -0.100000  0.375000      2.000000
  0.200000  0.000000  0.375000      2.000000
  0.000000  0.200000  0.375000      2.000000
 -0.200000  0.200000  0.375000      2.000000
 -0.200000  0.000000  0.375000      2.000000
  0.000000 -0.200000  0.375000      2.000000
  0.200000 -0.200000  0.375000      2.000000
  0.300000  0.000000  0.375000      2.000000
  0.000000  0.300000  0.375000      2.000000
 -0.300000  0.300000  0.375000      2.000000
 -0.300000  0.000000  0.375000      2.000000
  0.000000 -0.300000  0.375000      2.000000
  0.300000 -0.300000  0.375000      2.000000
  0.400000  0.000000  0.375000      2.000000
  0.000000  0.400000  0.375000      2.000000
 -0.400000  0.400000  0.375000      2.000000
 -0.400000  0.000000  0.375000      2.000000
  0.000000 -0.400000  0.375000      2.000000
  0.400000 -0.400000  0.375000      2.000000
  0.500000  0.000000  0.375000      2.000000
  0.000000  0.500000  0.375000      2.000000
  0.500000  0.500000  0.375000      2.000000
  0.100000  0.100000  0.375000      2.000000
 -0.100000  0.200000  0.375000      2.000000
 -0.200000  0.100000  0.375000      2.000000
 -0.100000 -0.100000  0.375000      2.000000
  0.100000 -0.200000  0.375000      2.000000
  0.200000 -0.100000  0.375000      2.000000
  0.200000  0.100000  0.375000      2.000000
 -0.100000  0.300000  0.375000      2.000000
 -0.300000  0.200000  0.375000      2.000000
 -0.200000 -0.100000  0.375000      2.000000
  0.100000 -0.300000  0.375000      2.000000
  0.300000 -0.200000  0.375000      2.000000
 -0.200000  0.300000 -0.375000      2.000000
  0.100000  0.200000 -0.375000      2.000000
  0.300000 -0.100000 -0.375000      2.000000
  0.200000 -0.300000 -0.375000      2.000000
 -0.100000 -0.200000 -0.375000      2.000000
 -0.300000  0.100000 -0.375000      2.000000
  0.300000  0.100000  0.375000      2.000000
 -0.100000  0.400000  0.375000      2.000000
 -0.400000  0.300000  0.375000      2.000000
 -0.300000 -0.100000  0.375000      2.000000
  0.100000 -0.400000  0.375000      2.000000
  0.400000 -0.300000  0.375000      2.000000
 -0.300000  0.400000 -0.375000      2.000000
  0.100000  0.300000 -0.375000      2.000000
  0.400000 -0.100000 -0.375000      2.000000
  0.300000 -0.400000 -0.375000      2.000000
 -0.100000 -0.300000 -0.375000      2.000000
 -0.400000  0.100000 -0.375000      2.000000
  0.400000  0.100000  0.375000      2.000000
 -0.100000  0.500000  0.375000      2.000000
  0.500000  0.400000  0.375000      2.000000
 -0.400000 -0.100000  0.375000      2.000000
  0.100000  0.500000  0.375000      2.000000
  0.500000 -0.400000  0.375000      2.000000
 -0.400000  0.500000 -0.375000      2.000000
  0.100000  0.400000 -0.375000      2.000000
  0.500000 -0.100000 -0.375000      2.000000
  0.400000  0.500000 -0.375000      2.000000
 -0.100000 -0.400000 -0.375000      2.000000
  0.500000  0.100000 -0.375000      2.000000
  0.200000  0.200000  0.375000      2.000000
 -0.200000  0.400000  0.375000      2.000000
 -0.400000  0.200000  0.375000      2.000000
 -0.200000 -0.200000  0.375000      2.000000
  0.200000 -0.400000  0.375000      2.000000
  0.400000 -0.200000  0.375000      2.000000
  0.300000  0.200000  0.375000      2.000000
 -0.200000  0.500000  0.375000      2.000000
  0.500000  0.300000  0.375000      2.000000
 -0.300000 -0.200000  0.375000      2.000000
  0.200000  0.500000  0.375000      2.000000
  0.500000 -0.300000  0.375000      2.000000
 -0.300000  0.500000 -0.375000      2.000000
  0.200000  0.300000 -0.375000      2.000000
  0.500000 -0.200000 -0.375000      2.000000
  0.300000  0.500000 -0.375000      2.000000
 -0.200000 -0.300000 -0.375000      2.000000
  0.500000  0.200000 -0.375000      2.000000
  0.400000  0.200000  0.375000      2.000000
 -0.200000 -0.400000  0.375000      2.000000
  0.400000  0.400000  0.375000      2.000000
 -0.400000 -0.200000  0.375000      2.000000
  0.200000  0.400000  0.375000      2.000000
 -0.400000 -0.400000  0.375000      2.000000
  0.300000  0.300000  0.375000      2.000000
 -0.300000 -0.400000  0.375000      2.000000
  0.400000  0.300000  0.375000      2.000000
 -0.300000 -0.300000  0.375000      2.000000
  0.300000  0.400000  0.375000      2.000000
 -0.400000 -0.300000  0.375000      2.000000
  0.000000  0.000000  0.500000      1.000000
  0.100000  0.000000  0.500000      2.000000
  0.000000  0.100000  0.500000      2.000000
 -0.100000  0.100000  0.500000      2.000000
  0.200000  0.000000  0.500000      2.000000
  0.000000  0.200000  0.500000      2.000000
 -0.200000  0.200000  0.500000      2.000000
  0.300000  0.000000  0.500000      2.000000
  0.000000  0.300000  0.500000      2.000000
 -0.300000  0.300000  0.500000      2.000000
  0.400000  0.000000  0.500000      2.000000
  0.000000  0.400000  0.500000      2.000000
 -0.400000  0.400000  0.500000      2.000000
  0.500000  0.000000  0.500000      1.000000
  0.000000  0.500000  0.500000      1.000000
  0.500000  0.500000  0.500000      1.000000
  0.100000  0.100000  0.500000      2.000000
 -0.100000  0.200000  0.500000      2.000000
 -0.200000  0.100000  0.500000      2.000000
  0.200000  0.100000  0.500000      2.000000
 -0.100000  0.300000  0.500000      2.000000
 -0.300000  0.200000  0.500000      2.000000
 -0.200000  0.300000  0.500000      2.000000
  0.100000  0.200000  0.500000      2.000000
  0.300000 -0.100000  0.500000      2.000000
  0.300000  0.100000  0.500000      2.000000
 -0.100000  0.400000  0.500000      2.000000
 -0.400000  0.300000  0.500000      2.000000
 -0.300000  0.400000  0.500000      2.000000
  0.100000  0.300000  0.500000      2.000000
  0.400000 -0.100000  0.500000      2.000000
  0.400000  0.100000  0.500000      2.000000
 -0.100000  0.500000  0.500000      2.000000
  0.500000  0.400000  0.500000      2.000000
 -0.400000  0.500000  0.500000      2.000000
  0.100000  0.400000  0.500000      2.000000
  0.500000 -0.100000  0.500000      2.000000
  0.200000  0.200000  0.500000      2.000000
 -0.200000  0.400000  0.500000      2.000000
 -0.400000  0.200000  0.500000      2.000000
  0.300000  0.200000  0.500000      2.000000
 -0.200000  0.500000  0.500000      2.000000
  0.500000  0.300000  0.500000      2.000000
 -0.300000  0.500000  0.500000      2.000000
  0.200000  0.300000  0.500000      2.000000
  0.500000 -0.200000  0.500000      2.000000
  0.400000  0.200000  0.500000      2.000000
 -0.200000 -0.400000  0.500000      2.000000
  0.400000  0.400000  0.500000      2.000000
  0.300000  0.300000  0.500000      2.000000
 -0.300000 -0.400000  0.500000      2.000000
  0.400000  0.300000  0.500000      2.000000
 
 Following cartesian coordinates:
            Coordinates               Weight
  0.000000 -0.000000  0.000000      1.000000
  0.020339 -0.011743  0.000000      2.000000
  0.020339  0.011743  0.000000      2.000000
  0.000000  0.023486  0.000000      2.000000
  0.040679 -0.023486  0.000000      2.000000
  0.040679  0.023486  0.000000      2.000000
  0.000000  0.046972  0.000000      2.000000
  0.061018 -0.035229  0.000000      2.000000
  0.061018  0.035229  0.000000      2.000000
  0.000000  0.070458  0.000000      2.000000
  0.081358 -0.046972  0.000000      2.000000
  0.081358  0.046972  0.000000      2.000000
  0.000000  0.093944  0.000000      2.000000
  0.101697 -0.058715  0.000000      1.000000
  0.101697  0.058715  0.000000      1.000000
  0.203394 -0.000000  0.000000      1.000000
  0.040679 -0.000000  0.000000      2.000000
  0.020339  0.035229  0.000000      2.000000
 -0.020339  0.035229  0.000000      2.000000
  0.061018 -0.011743  0.000000      2.000000
  0.040679  0.046972  0.000000      2.000000
 -0.020339  0.058715  0.000000      2.000000
  0.020339  0.058715  0.000000      2.000000
  0.061018  0.011743  0.000000      2.000000
  0.040679 -0.046972  0.000000      2.000000
  0.081358 -0.023486  0.000000      2.000000
  0.061018  0.058715  0.000000      2.000000
 -0.020339  0.082201  0.000000      2.000000
  0.020339  0.082201  0.000000      2.000000
  0.081358  0.023486  0.000000      2.000000
  0.061018 -0.058715  0.000000      2.000000
  0.101697 -0.035229  0.000000      2.000000
  0.081358  0.070458  0.000000      2.000000
  0.183055 -0.011743  0.000000      2.000000
  0.020339  0.105687  0.000000      2.000000
  0.101697  0.035229  0.000000      2.000000
  0.081358 -0.070458  0.000000      2.000000
  0.081358  0.000000  0.000000      2.000000
  0.040679  0.070458  0.000000      2.000000
 -0.040679  0.070458  0.000000      2.000000
  0.101697 -0.011743  0.000000      2.000000
  0.061018  0.082201  0.000000      2.000000
  0.162715 -0.023486  0.000000      2.000000
  0.040679  0.093944  0.000000      2.000000
  0.101697  0.011743  0.000000      2.000000
  0.061018 -0.082201  0.000000      2.000000
  0.122037 -0.023486  0.000000      2.000000
 -0.122037 -0.023486  0.000000      2.000000
  0.162715  0.000000  0.000000      2.000000
  0.122037  0.000000  0.000000      2.000000
 -0.142376 -0.011743  0.000000      2.000000
  0.142376 -0.011743  0.000000      2.000000
  0.000000 -0.000000  0.023013      2.000000
  0.020339 -0.011743  0.023013      2.000000
  0.020339  0.011743  0.023013      2.000000
  0.000000  0.023486  0.023013      2.000000
 -0.020339  0.011743  0.023013      2.000000
 -0.020339 -0.011743  0.023013      2.000000
  0.000000 -0.023486  0.023013      2.000000
  0.040679 -0.023486  0.023013      2.000000
  0.040679  0.023486  0.023013      2.000000
  0.000000  0.046972  0.023013      2.000000
 -0.040679  0.023486  0.023013      2.000000
 -0.040679 -0.023486  0.023013      2.000000
  0.000000 -0.046972  0.023013      2.000000
  0.061018 -0.035229  0.023013      2.000000
  0.061018  0.035229  0.023013      2.000000
  0.000000  0.070458  0.023013      2.000000
 -0.061018  0.035229  0.023013      2.000000
 -0.061018 -0.035229  0.023013      2.000000
  0.000000 -0.070458  0.023013      2.000000
  0.081358 -0.046972  0.023013      2.000000
  0.081358  0.046972  0.023013      2.000000
  0.000000  0.093944  0.023013      2.000000
 -0.081358  0.046972  0.023013      2.000000
 -0.081358 -0.046972  0.023013      2.000000
  0.000000 -0.093944  0.023013      2.000000
  0.101697 -0.058715  0.023013      2.000000
  0.101697  0.058715  0.023013      2.000000
  0.203394 -0.000000  0.023013      2.000000
  0.040679 -0.000000  0.023013      2.000000
  0.020339  0.035229  0.023013      2.000000
 -0.020339  0.035229  0.023013      2.000000
 -0.040679  0.000000  0.023013      2.000000
 -0.020339 -0.035229  0.023013      2.000000
  0.020339 -0.035229  0.023013      2.000000
  0.061018 -0.011743  0.023013      2.000000
  0.040679  0.046972  0.023013      2.000000
 -0.020339  0.058715  0.023013      2.000000
 -0.061018  0.011743  0.023013      2.000000
 -0.040679 -0.046972  0.023013      2.000000
  0.020339 -0.058715  0.023013      2.000000
  0.020339  0.058715 -0.023013      2.000000
  0.061018  0.011743 -0.023013      2.000000
  0.040679 -0.046972 -0.023013      2.000000
 -0.020339 -0.058715 -0.023013      2.000000
 -0.061018 -0.011743 -0.023013      2.000000
 -0.040679  0.046972 -0.023013      2.000000
  0.081358 -0.023486  0.023013      2.000000
  0.061018  0.058715  0.023013      2.000000
 -0.020339  0.082201  0.023013      2.000000
 -0.081358  0.023486  0.023013      2.000000
 -0.061018 -0.058715  0.023013      2.000000
  0.020339 -0.082201  0.023013      2.000000
  0.020339  0.082201 -0.023013      2.000000
  0.081358  0.023486 -0.023013      2.000000
  0.061018 -0.058715 -0.023013      2.000000
 -0.020339 -0.082201 -0.023013      2.000000
 -0.081358 -0.023486 -0.023013      2.000000
 -0.061018  0.058715 -0.023013      2.000000
  0.101697 -0.035229  0.023013      2.000000
  0.081358  0.070458  0.023013      2.000000
  0.183055 -0.011743  0.023013      2.000000
 -0.101697  0.035229  0.023013      2.000000
  0.122037  0.046972  0.023013      2.000000
  0.020339 -0.105687  0.023013      2.000000
  0.020339  0.105687 -0.023013      2.000000
  0.101697  0.035229 -0.023013      2.000000
  0.081358 -0.070458 -0.023013      2.000000
  0.183055  0.011743 -0.023013      2.000000
 -0.101697 -0.035229 -0.023013      2.000000
  0.122037 -0.046972 -0.023013      2.000000
  0.081358  0.000000  0.023013      2.000000
  0.040679  0.070458  0.023013      2.000000
 -0.040679  0.070458  0.023013      2.000000
 -0.081358  0.000000  0.023013      2.000000
 -0.040679 -0.070458  0.023013      2.000000
  0.040679 -0.070458  0.023013      2.000000
  0.101697 -0.011743  0.023013      2.000000
  0.061018  0.082201  0.023013      2.000000
  0.162715 -0.023486  0.023013      2.000000
 -0.101697  0.011743  0.023013      2.000000
  0.142376  0.035229  0.023013      2.000000
  0.040679 -0.093944  0.023013      2.000000
  0.040679  0.093944 -0.023013      2.000000
  0.101697  0.011743 -0.023013      2.000000
  0.061018 -0.082201 -0.023013      2.000000
  0.162715  0.023486 -0.023013      2.000000
 -0.101697 -0.011743 -0.023013      2.000000
  0.142376 -0.035229 -0.023013      2.000000
  0.122037 -0.023486  0.023013      2.000000
 -0.122037 -0.023486  0.023013      2.000000
  0.162715  0.000000  0.023013      2.000000
 -0.122037  0.023486  0.023013      2.000000
  0.122037  0.023486  0.023013      2.000000
 -0.162715 -0.000000  0.023013      2.000000
  0.122037  0.000000  0.023013      2.000000
 -0.142376 -0.011743  0.023013      2.000000
  0.142376 -0.011743  0.023013      2.000000
 -0.122037  0.000000  0.023013      2.000000
  0.142376  0.011743  0.023013      2.000000
 -0.142376  0.011743  0.023013      2.000000
  0.000000 -0.000000  0.046027      2.000000
  0.020339 -0.011743  0.046027      2.000000
  0.020339  0.011743  0.046027      2.000000
  0.000000  0.023486  0.046027      2.000000
 -0.020339  0.011743  0.046027      2.000000
 -0.020339 -0.011743  0.046027      2.000000
  0.000000 -0.023486  0.046027      2.000000
  0.040679 -0.023486  0.046027      2.000000
  0.040679  0.023486  0.046027      2.000000
  0.000000  0.046972  0.046027      2.000000
 -0.040679  0.023486  0.046027      2.000000
 -0.040679 -0.023486  0.046027      2.000000
  0.000000 -0.046972  0.046027      2.000000
  0.061018 -0.035229  0.046027      2.000000
  0.061018  0.035229  0.046027      2.000000
  0.000000  0.070458  0.046027      2.000000
 -0.061018  0.035229  0.046027      2.000000
 -0.061018 -0.035229  0.046027      2.000000
  0.000000 -0.070458  0.046027      2.000000
  0.081358 -0.046972  0.046027      2.000000
  0.081358  0.046972  0.046027      2.000000
  0.000000  0.093944  0.046027      2.000000
 -0.081358  0.046972  0.046027      2.000000
 -0.081358 -0.046972  0.046027      2.000000
  0.000000 -0.093944  0.046027      2.000000
  0.101697 -0.058715  0.046027      2.000000
  0.101697  0.058715  0.046027      2.000000
  0.203394 -0.000000  0.046027      2.000000
  0.040679 -0.000000  0.046027      2.000000
  0.020339  0.035229  0.046027      2.000000
 -0.020339  0.035229  0.046027      2.000000
 -0.040679  0.000000  0.046027      2.000000
 -0.020339 -0.035229  0.046027      2.000000
  0.020339 -0.035229  0.046027      2.000000
  0.061018 -0.011743  0.046027      2.000000
  0.040679  0.046972  0.046027      2.000000
 -0.020339  0.058715  0.046027      2.000000
 -0.061018  0.011743  0.046027      2.000000
 -0.040679 -0.046972  0.046027      2.000000
  0.020339 -0.058715  0.046027      2.000000
  0.020339  0.058715 -0.046027      2.000000
  0.061018  0.011743 -0.046027      2.000000
  0.040679 -0.046972 -0.046027      2.000000
 -0.020339 -0.058715 -0.046027      2.000000
 -0.061018 -0.011743 -0.046027      2.000000
 -0.040679  0.046972 -0.046027      2.000000
  0.081358 -0.023486  0.046027      2.000000
  0.061018  0.058715  0.046027      2.000000
 -0.020339  0.082201  0.046027      2.000000
 -0.081358  0.023486  0.046027      2.000000
 -0.061018 -0.058715  0.046027      2.000000
  0.020339 -0.082201  0.046027      2.000000
  0.020339  0.082201 -0.046027      2.000000
  0.081358  0.023486 -0.046027      2.000000
  0.061018 -0.058715 -0.046027      2.000000
 -0.020339 -0.082201 -0.046027      2.000000
 -0.081358 -0.023486 -0.046027      2.000000
 -0.061018  0.058715 -0.046027      2.000000
  0.101697 -0.035229  0.046027      2.000000
  0.081358  0.070458  0.046027      2.000000
  0.183055 -0.011743  0.046027      2.000000
 -0.101697  0.035229  0.046027      2.000000
  0.122037  0.046972  0.046027      2.000000
  0.020339 -0.105687  0.046027      2.000000
  0.020339  0.105687 -0.046027      2.000000
  0.101697  0.035229 -0.046027      2.000000
  0.081358 -0.070458 -0.046027      2.000000
  0.183055  0.011743 -0.046027      2.000000
 -0.101697 -0.035229 -0.046027      2.000000
  0.122037 -0.046972 -0.046027      2.000000
  0.081358  0.000000  0.046027      2.000000
  0.040679  0.070458  0.046027      2.000000
 -0.040679  0.070458  0.046027      2.000000
 -0.081358  0.000000  0.046027      2.000000
 -0.040679 -0.070458  0.046027      2.000000
  0.040679 -0.070458  0.046027      2.000000
  0.101697 -0.011743  0.046027      2.000000
  0.061018  0.082201  0.046027      2.000000
  0.162715 -0.023486  0.046027      2.000000
 -0.101697  0.011743  0.046027      2.000000
  0.142376  0.035229  0.046027      2.000000
  0.040679 -0.093944  0.046027      2.000000
  0.040679  0.093944 -0.046027      2.000000
  0.101697  0.011743 -0.046027      2.000000
  0.061018 -0.082201 -0.046027      2.000000
  0.162715  0.023486 -0.046027      2.000000
 -0.101697 -0.011743 -0.046027      2.000000
  0.142376 -0.035229 -0.046027      2.000000
  0.122037 -0.023486  0.046027      2.000000
 -0.122037 -0.023486  0.046027      2.000000
  0.162715  0.000000  0.046027      2.000000
 -0.122037  0.023486  0.046027      2.000000
  0.122037  0.023486  0.046027      2.000000
 -0.162715 -0.000000  0.046027      2.000000
  0.122037  0.000000  0.046027      2.000000
 -0.142376 -0.011743  0.046027      2.000000
  0.142376 -0.011743  0.046027      2.000000
 -0.122037  0.000000  0.046027      2.000000
  0.142376  0.011743  0.046027      2.000000
 -0.142376  0.011743  0.046027      2.000000
  0.000000 -0.000000  0.069040      2.000000
  0.020339 -0.011743  0.069040      2.000000
  0.020339  0.011743  0.069040      2.000000
  0.000000  0.023486  0.069040      2.000000
 -0.020339  0.011743  0.069040      2.000000
 -0.020339 -0.011743  0.069040      2.000000
  0.000000 -0.023486  0.069040      2.000000
  0.040679 -0.023486  0.069040      2.000000
  0.040679  0.023486  0.069040      2.000000
  0.000000  0.046972  0.069040      2.000000
 -0.040679  0.023486  0.069040      2.000000
 -0.040679 -0.023486  0.069040      2.000000
  0.000000 -0.046972  0.069040      2.000000
  0.061018 -0.035229  0.069040      2.000000
  0.061018  0.035229  0.069040      2.000000
  0.000000  0.070458  0.069040      2.000000
 -0.061018  0.035229  0.069040      2.000000
 -0.061018 -0.035229  0.069040      2.000000
  0.000000 -0.070458  0.069040      2.000000
  0.081358 -0.046972  0.069040      2.000000
  0.081358  0.046972  0.069040      2.000000
  0.000000  0.093944  0.069040      2.000000
 -0.081358  0.046972  0.069040      2.000000
 -0.081358 -0.046972  0.069040      2.000000
  0.000000 -0.093944  0.069040      2.000000
  0.101697 -0.058715  0.069040      2.000000
  0.101697  0.058715  0.069040      2.000000
  0.203394 -0.000000  0.069040      2.000000
  0.040679 -0.000000  0.069040      2.000000
  0.020339  0.035229  0.069040      2.000000
 -0.020339  0.035229  0.069040      2.000000
 -0.040679  0.000000  0.069040      2.000000
 -0.020339 -0.035229  0.069040      2.000000
  0.020339 -0.035229  0.069040      2.000000
  0.061018 -0.011743  0.069040      2.000000
  0.040679  0.046972  0.069040      2.000000
 -0.020339  0.058715  0.069040      2.000000
 -0.061018  0.011743  0.069040      2.000000
 -0.040679 -0.046972  0.069040      2.000000
  0.020339 -0.058715  0.069040      2.000000
  0.020339  0.058715 -0.069040      2.000000
  0.061018  0.011743 -0.069040      2.000000
  0.040679 -0.046972 -0.069040      2.000000
 -0.020339 -0.058715 -0.069040      2.000000
 -0.061018 -0.011743 -0.069040      2.000000
 -0.040679  0.046972 -0.069040      2.000000
  0.081358 -0.023486  0.069040      2.000000
  0.061018  0.058715  0.069040      2.000000
 -0.020339  0.082201  0.069040      2.000000
 -0.081358  0.023486  0.069040      2.000000
 -0.061018 -0.058715  0.069040      2.000000
  0.020339 -0.082201  0.069040      2.000000
  0.020339  0.082201 -0.069040      2.000000
  0.081358  0.023486 -0.069040      2.000000
  0.061018 -0.058715 -0.069040      2.000000
 -0.020339 -0.082201 -0.069040      2.000000
 -0.081358 -0.023486 -0.069040      2.000000
 -0.061018  0.058715 -0.069040      2.000000
  0.101697 -0.035229  0.069040      2.000000
  0.081358  0.070458  0.069040      2.000000
  0.183055 -0.011743  0.069040      2.000000
 -0.101697  0.035229  0.069040      2.000000
  0.122037  0.046972  0.069040      2.000000
  0.020339 -0.105687  0.069040      2.000000
  0.020339  0.105687 -0.069040      2.000000
  0.101697  0.035229 -0.069040      2.000000
  0.081358 -0.070458 -0.069040      2.000000
  0.183055  0.011743 -0.069040      2.000000
 -0.101697 -0.035229 -0.069040      2.000000
  0.122037 -0.046972 -0.069040      2.000000
  0.081358  0.000000  0.069040      2.000000
  0.040679  0.070458  0.069040      2.000000
 -0.040679  0.070458  0.069040      2.000000
 -0.081358  0.000000  0.069040      2.000000
 -0.040679 -0.070458  0.069040      2.000000
  0.040679 -0.070458  0.069040      2.000000
  0.101697 -0.011743  0.069040      2.000000
  0.061018  0.082201  0.069040      2.000000
  0.162715 -0.023486  0.069040      2.000000
 -0.101697  0.011743  0.069040      2.000000
  0.142376  0.035229  0.069040      2.000000
  0.040679 -0.093944  0.069040      2.000000
  0.040679  0.093944 -0.069040      2.000000
  0.101697  0.011743 -0.069040      2.000000
  0.061018 -0.082201 -0.069040      2.000000
  0.162715  0.023486 -0.069040      2.000000
 -0.101697 -0.011743 -0.069040      2.000000
  0.142376 -0.035229 -0.069040      2.000000
  0.122037 -0.023486  0.069040      2.000000
 -0.122037 -0.023486  0.069040      2.000000
  0.162715  0.000000  0.069040      2.000000
 -0.122037  0.023486  0.069040      2.000000
  0.122037  0.023486  0.069040      2.000000
 -0.162715 -0.000000  0.069040      2.000000
  0.122037  0.000000  0.069040      2.000000
 -0.142376 -0.011743  0.069040      2.000000
  0.142376 -0.011743  0.069040      2.000000
 -0.122037  0.000000  0.069040      2.000000
  0.142376  0.011743  0.069040      2.000000
 -0.142376  0.011743  0.069040      2.000000
  0.000000 -0.000000  0.092053      1.000000
  0.020339 -0.011743  0.092053      2.000000
  0.020339  0.011743  0.092053      2.000000
  0.000000  0.023486  0.092053      2.000000
  0.040679 -0.023486  0.092053      2.000000
  0.040679  0.023486  0.092053      2.000000
  0.000000  0.046972  0.092053      2.000000
  0.061018 -0.035229  0.092053      2.000000
  0.061018  0.035229  0.092053      2.000000
  0.000000  0.070458  0.092053      2.000000
  0.081358 -0.046972  0.092053      2.000000
  0.081358  0.046972  0.092053      2.000000
  0.000000  0.093944  0.092053      2.000000
  0.101697 -0.058715  0.092053      1.000000
  0.101697  0.058715  0.092053      1.000000
  0.203394 -0.000000  0.092053      1.000000
  0.040679 -0.000000  0.092053      2.000000
  0.020339  0.035229  0.092053      2.000000
 -0.020339  0.035229  0.092053      2.000000
  0.061018 -0.011743  0.092053      2.000000
  0.040679  0.046972  0.092053      2.000000
 -0.020339  0.058715  0.092053      2.000000
  0.020339  0.058715  0.092053      2.000000
  0.061018  0.011743  0.092053      2.000000
  0.040679 -0.046972  0.092053      2.000000
  0.081358 -0.023486  0.092053      2.000000
  0.061018  0.058715  0.092053      2.000000
 -0.020339  0.082201  0.092053      2.000000
  0.020339  0.082201  0.092053      2.000000
  0.081358  0.023486  0.092053      2.000000
  0.061018 -0.058715  0.092053      2.000000
  0.101697 -0.035229  0.092053      2.000000
  0.081358  0.070458  0.092053      2.000000
  0.183055 -0.011743  0.092053      2.000000
  0.020339  0.105687  0.092053      2.000000
  0.101697  0.035229  0.092053      2.000000
  0.081358 -0.070458  0.092053      2.000000
  0.081358  0.000000  0.092053      2.000000
  0.040679  0.070458  0.092053      2.000000
 -0.040679  0.070458  0.092053      2.000000
  0.101697 -0.011743  0.092053      2.000000
  0.061018  0.082201  0.092053      2.000000
  0.162715 -0.023486  0.092053      2.000000
  0.040679  0.093944  0.092053      2.000000
  0.101697  0.011743  0.092053      2.000000
  0.061018 -0.082201  0.092053      2.000000
  0.122037 -0.023486  0.092053      2.000000
 -0.122037 -0.023486  0.092053      2.000000
  0.162715  0.000000  0.092053      2.000000
  0.122037  0.000000  0.092053      2.000000
 -0.142376 -0.011743  0.092053      2.000000
  0.142376 -0.011743  0.092053      2.000000
 


--------------------------------------------------------------------------------------------------------




 Dimension of arrays:
   k-points           NKPTS =    404   k-points in BZ     NKDIM =    404   number of bands    NBANDS=     36
   number of dos      NEDOS =   2000   number of ions     NIONS =      9
   non local maximal  LDIM  =      4   non local SUM 2l+1 LMDIM =      8
   total plane-waves  NPLWV =  64000
   max r-space proj   IRMAX =      1   max aug-charges    IRDMAX=  19016
   dimension x,y,z NGX =    40 NGY =   40 NGZ =   40
   dimension x,y,z NGXF=    80 NGYF=   80 NGZF=   80
   support grid    NGXF=    80 NGYF=   80 NGZF=   80
   ions per type =               3   6
   NGX,Y,Z   is equivalent  to a cutoff of  13.53, 13.53, 12.24 a.u.
   NGXF,Y,Z  is equivalent  to a cutoff of  27.05, 27.05, 24.49 a.u.

 SYSTEM =  unknown system                          
 POSCAR =  Si3 O6                                  

 Startparameter for this run:
   NWRITE =      2    write-flag & timer
   PREC   = accura    normal or accurate (medium, high low for compatibility)
   ISTART =      1    job   : 0-new  1-cont  2-samecut
   ICHARG =     11    charge: 1-file 2-atom 10-const
   ISPIN  =      1    spin polarized calculation?
   LNONCOLLINEAR =      F non collinear calculations
   LSORBIT =      F    spin-orbit coupling
   INIWAV =      1    electr: 0-lowe 1-rand  2-diag
   LASPH  =      F    aspherical Exc in radial PAW
 Electronic Relaxation 1
   ENCUT  =  520.0 eV  38.22 Ry    6.18 a.u.   9.14  9.14 10.10*2*pi/ulx,y,z
   ENINI  =  520.0     initial cutoff
   ENAUG  =  605.4 eV  augmentation charge cutoff
   NELM   =    120;   NELMIN=  8; NELMDL=  0     # of ELM steps 
   EDIFF  = 0.1E-05   stopping-criterion for ELM
   LREAL  =      F    real-space projection
   NLSPLINE    = F    spline interpolate recip. space projectors
   LCOMPAT=      F    compatible to vasp.4.4
   GGA_COMPAT  = T    GGA compatible to vasp.4.4-vasp.4.6
   LMAXPAW     = -100 max onsite density
   LMAXMIX     =    2 max onsite mixed and CHGCAR
   VOSKOWN=      0    Vosko Wilk Nusair interpolation
   ROPT   =    0.00000   0.00000
 Ionic relaxation
   EDIFFG = 0.1E-04   stopping-criterion for IOM
   NSW    =      0    number of steps for IOM
   NBLOCK =      1;   KBLOCK =      1    inner block; outer block 
   IBRION =     -1    ionic relax: 0-MD 1-quasi-New 2-CG
   NFREE  =      0    steps in history (QN), initial steepest desc. (CG)
   ISIF   =      2    stress and relaxation
   IWAVPR =     10    prediction:  0-non 1-charg 2-wave 3-comb
   ISYM   =      0    0-nonsym 1-usesym 2-fastsym
   LCORR  =      T    Harris-Foulkes like correction to forces

   POTIM  = 0.5000    time-step for ionic-motion
   TEIN   =    0.0    initial temperature
   TEBEG  =    0.0;   TEEND  =   0.0 temperature during run
   SMASS  =  -3.00    Nose mass-parameter (am)
   estimated Nose-frequenzy (Omega)   =  0.10E-29 period in steps = 0.13E+47 mass=  -0.552E-27a.u.
   SCALEE = 1.0000    scale energy and forces
   NPACO  =    256;   APACO  = 10.0  distance and # of slots for P.C.
   PSTRESS=    0.0 pullay stress

  Mass of Ions in am
   POMASS =  28.09 16.00
  Ionic Valenz
   ZVAL   =   4.00  6.00
  Atomic Wigner-Seitz radii
   RWIGS  =  -1.00 -1.00
  virtual crystal weights 
   VCA    =   1.00  1.00
   NELECT =      48.0000    total number of electrons
   NUPDOWN=      -1.0000    fix difference up-down

 DOS related values:
   EMIN   = -20.00;   EMAX   = 20.00  energy-range for DOS
   EFERMI =   0.00;   METHOD = LEGACY      
   ISMEAR =    -5;   SIGMA  =   0.20  broadening in eV -4-tet -1-fermi 0-gaus

 Electronic relaxation 2 (details)
   IALGO  =     38    algorithm
   LDIAG  =      T    sub-space diagonalisation (order eigenvalues)
   LSUBROT=      F    optimize rotation matrix (better conditioning)
   TURBO    =      0    0=normal 1=particle mesh
   IRESTART =      0    0=no restart 2=restart with 2 vectors
   NREBOOT  =      0    no. of reboots
   NMIN     =      0    reboot dimension
   EREF     =   0.00    reference energy to select bands
   IMIX   =      4    mixing-type and parameters
     AMIX     =   0.40;   BMIX     =  1.00
     AMIX_MAG =   1.60;   BMIX_MAG =  1.00
     AMIN     =   0.10
     WC   =   100.;   INIMIX=   1;  MIXPRE=   1;  MAXMIX= -45

 Intra band minimization:
   WEIMIN = 0.0000     energy-eigenvalue tresh-hold
   EBREAK =  0.69E-08  absolut break condition
   DEPER  =   0.30     relativ break condition  

   TIME   =   0.40     timestep for ELM

  volume/ion in A,a.u.               =      12.63        85.26
  Fermi-wavevector in a.u.,A,eV,Ry     =   1.228083  2.320740 20.520137  1.508187
  Thomas-Fermi vector in A             =   2.363022

 Write flags
   LWAVE        =      T    write WAVECAR
   LDOWNSAMPLE  =      F    k-point downsampling of WAVECAR
   LCHARG       =      T    write CHGCAR
   LVTOT        =      F    write LOCPOT, total local potential
   LVHAR        =      F    write LOCPOT, Hartree potential only
   WRT_POTENTIAL= false  ! write potential to hdf5 file
   LELF         =      F    write electronic localiz. function (ELF)
   LORBIT       =     11    0 simple, 1 ext, 2 COOP (PROOUT), +10 PAW based schemes


 Dipole corrections
   LMONO      =      F    monopole corrections only (constant potential shift)
   LDIPOL     =      F    correct potential (dipole corrections)
   IDIPOL     =      0    1-x, 2-y, 3-z, 4-all directions 
   EPSILON    =  1.0000000 bulk dielectric constant
   LVACPOTAV  =      F  vacuum potentials using an averaging scheme for the charge density
   VACPOTFLAT =  0.1000000 required flatness to determine vacuum potential
 Exchange correlation treatment:
   GGA     = PE    functional components
   XC_C    = 1    coefficients multiplying the functional components
   LIBXC   =     F    Libxc                    
   VOSKOWN =     0    Vosko Wilk Nusair interpolation
   LHFCALC =     F    Hartree Fock is set to
   LHFONE  =     F    Hartree Fock one center treatment
   AEXX    =    0.0000 exact exchange contribution

 Parameters of functionals:
   PE:
     No parameter

 Van der Waals corrections
   IVDW    =     0    specifies the selected vdW correction

 Linear response parameters
   LEPSILON=     F    determine dielectric tensor
   LRPA    =     F    only Hartree local field effects (RPA)
   LNABLA  =     F    use nabla operator in PAW spheres
   LVEL    =     F    velocity operator in full k-point grid
   CSHIFT  =0.1000    complex shift for real part using Kramers Kronig
   OMEGAMAX=  -1.0    maximum frequency
   DEG_THRESHOLD= 0.2000000E-02 threshold for treating states as degnerate
   RTIME   =   -0.100 relaxation time in fs
  (WPLASMAI=    0.000 imaginary part of plasma frequency in eV, 0.658/RTIME)
   DFIELD  = 0.0000000 0.0000000 0.0000000 field for delta impulse in time

  Optional k-point grid parameters
   LKPOINTS_OPT  =     F    use optional k-point grid
   KPOINTS_OPT_MODE=     1    mode for optional k-point grid

 Orbital magnetization related:
   ORBITALMAG=     F  switch on orbital magnetization
   LCHIMAG   =     F  perturbation theory with respect to B field
   DQ        =  0.001000  dq finite difference perturbation B field
   LLRAUG    =     F  two centre corrections for induced B field
   LBONE     =     F  B-component reconstruction in AE one-centre
   LVGVCALC  =     T  calculate vGv susceptibility
   LVGVAPPL  =     F  apply vGv susceptibility instead of pGv for G=0

 Random number generation:
   RANDOM_GENERATOR = DEFAULT
   PCG_SEED         = not used


--------------------------------------------------------------------------------------------------------


 Static calculation
 charge density and potential remain constant during run
 non-spin polarized calculation
 Variant of blocked Davidson
 Davidson routine will perform the subspace rotation
 perform sub-space diagonalisation
    after iterative eigenvector-optimisation
 no mixing
 using additional bands           12
 reciprocal scheme for non local part
 use partial core corrections
 calculate Harris-corrections to forces   (improved forces if not selfconsistent)
 use gradient corrections 
 WARNING: stress and forces are not correct
  (second derivative of E(xc) not defined)
 use of overlap-Matrix (Vanderbilt PP)
 Fermi weights with tetrahedron method with Bloechl corrections


--------------------------------------------------------------------------------------------------------


  energy-cutoff  :      520.00
  volume of cell :      113.71
      direct lattice vectors                 reciprocal lattice vectors
     2.458278904 -4.257863960  0.000000000     0.203394334 -0.117429773  0.000000000
     2.458278904  4.257863960  0.000000000     0.203394334  0.117429773 -0.000000000
     0.000000000  0.000000000  5.431625250    -0.000000000  0.000000000  0.184106958

  length of vectors
     4.916557807  4.916557807  5.431625250     0.234859547  0.234859547  0.184106958



 old parameters found on file WAVECAR:
  energy-cutoff  :      520.00
  volume of cell :      113.71
      direct lattice vectors                 reciprocal lattice vectors
     2.458278904 -4.257863960  0.000000000     0.203394334 -0.117429773  0.000000000
     2.458278904  4.257863960  0.000000000     0.203394334  0.117429773 -0.000000000
     0.000000000  0.000000000  5.431625250    -0.000000000  0.000000000  0.184106958

  length of vectors


 k-points in units of 2pi/SCALE and weight: read from INCAR                         
   0.00000000  0.00000000  0.00000000       0.001
   0.02033943 -0.01174298  0.00000000       0.003
   0.02033943  0.01174298  0.00000000       0.003
   0.00000000  0.02348595  0.00000000       0.003
   0.04067887 -0.02348595  0.00000000       0.003
   0.04067887  0.02348595  0.00000000       0.003
   0.00000000  0.04697191  0.00000000       0.003
   0.06101830 -0.03522893  0.00000000       0.003
   0.06101830  0.03522893  0.00000000       0.003
   0.00000000  0.07045786  0.00000000       0.003
   0.08135773 -0.04697191  0.00000000       0.003
   0.08135773  0.04697191  0.00000000       0.003
   0.00000000  0.09394382  0.00000000       0.003
   0.10169717 -0.05871489  0.00000000       0.001
   0.10169717  0.05871489  0.00000000       0.001
   0.20339433  0.00000000  0.00000000       0.001
   0.04067887  0.00000000  0.00000000       0.003
   0.02033943  0.03522893  0.00000000       0.003
  -0.02033943  0.03522893  0.00000000       0.003
   0.06101830 -0.01174298  0.00000000       0.003
   0.04067887  0.04697191  0.00000000       0.003
  -0.02033943  0.05871489  0.00000000       0.003
   0.02033943  0.05871489  0.00000000       0.003
   0.06101830  0.01174298  0.00000000       0.003
   0.04067887 -0.04697191  0.00000000       0.003
   0.08135773 -0.02348595  0.00000000       0.003
   0.06101830  0.05871489  0.00000000       0.003
  -0.02033943  0.08220084  0.00000000       0.003
   0.02033943  0.08220084  0.00000000       0.003
   0.08135773  0.02348595  0.00000000       0.003
   0.06101830 -0.05871489  0.00000000       0.003
   0.10169717 -0.03522893  0.00000000       0.003
   0.08135773  0.07045786  0.00000000       0.003
   0.18305490 -0.01174298  0.00000000       0.003
   0.02033943  0.10568680  0.00000000       0.003
   0.10169717  0.03522893  0.00000000       0.003
   0.08135773 -0.07045786  0.00000000       0.003
   0.08135773 -0.00000000  0.00000000       0.003
   0.04067887  0.07045786  0.00000000       0.003
  -0.04067887  0.07045786  0.00000000       0.003
   0.10169717 -0.01174298  0.00000000       0.003
   0.06101830  0.08220084  0.00000000       0.003
   0.16271547 -0.02348595  0.00000000       0.003
   0.04067887  0.09394382  0.00000000       0.003
   0.10169717  0.01174298  0.00000000       0.003
   0.06101830 -0.08220084  0.00000000       0.003
   0.12203660 -0.02348595  0.00000000       0.003
  -0.12203660 -0.02348595  0.00000000       0.003
   0.16271547 -0.00000000  0.00000000       0.003
   0.12203660 -0.00000000  0.00000000       0.003
  -0.14237603 -0.01174298  0.00000000       0.003
   0.14237603 -0.01174298  0.00000000       0.003
   0.00000000  0.00000000  0.02301337       0.003
   0.02033943 -0.01174298  0.02301337       0.003
   0.02033943  0.01174298  0.02301337       0.003
   0.00000000  0.02348595  0.02301337       0.003
  -0.02033943  0.01174298  0.02301337       0.003
  -0.02033943 -0.01174298  0.02301337       0.003
   0.00000000 -0.02348595  0.02301337       0.003
   0.04067887 -0.02348595  0.02301337       0.003
   0.04067887  0.02348595  0.02301337       0.003
   0.00000000  0.04697191  0.02301337       0.003
  -0.04067887  0.02348595  0.02301337       0.003
  -0.04067887 -0.02348595  0.02301337       0.003
   0.00000000 -0.04697191  0.02301337       0.003
   0.06101830 -0.03522893  0.02301337       0.003
   0.06101830  0.03522893  0.02301337       0.003
   0.00000000  0.07045786  0.02301337       0.003
  -0.06101830  0.03522893  0.02301337       0.003
  -0.06101830 -0.03522893  0.02301337       0.003
   0.00000000 -0.07045786  0.02301337       0.003
   0.08135773 -0.04697191  0.02301337       0.003
   0.08135773  0.04697191  0.02301337       0.003
   0.00000000  0.09394382  0.02301337       0.003
  -0.08135773  0.04697191  0.02301337       0.003
  -0.08135773 -0.04697191  0.02301337       0.003
   0.00000000 -0.09394382  0.02301337       0.003
   0.10169717 -0.05871489  0.02301337       0.003
   0.10169717  0.05871489  0.02301337       0.003
   0.20339433  0.00000000  0.02301337       0.003
   0.04067887  0.00000000  0.02301337       0.003
   0.02033943  0.03522893  0.02301337       0.003
  -0.02033943  0.03522893  0.02301337       0.003
  -0.04067887 -0.00000000  0.02301337       0.003
  -0.02033943 -0.03522893  0.02301337       0.003
   0.02033943 -0.03522893  0.02301337       0.003
   0.06101830 -0.01174298  0.02301337       0.003
   0.04067887  0.04697191  0.02301337       0.003
  -0.02033943  0.05871489  0.02301337       0.003
  -0.06101830  0.01174298  0.02301337       0.003
  -0.04067887 -0.04697191  0.02301337       0.003
   0.02033943 -0.05871489  0.02301337       0.003
   0.02033943  0.05871489 -0.02301337       0.003
   0.06101830  0.01174298 -0.02301337       0.003
   0.04067887 -0.04697191 -0.02301337       0.003
  -0.02033943 -0.05871489 -0.02301337       0.003
  -0.06101830 -0.01174298 -0.02301337       0.003
  -0.04067887  0.04697191 -0.02301337       0.003
   0.08135773 -0.02348595  0.02301337       0.003
   0.06101830  0.05871489  0.02301337       0.003
  -0.02033943  0.08220084  0.02301337       0.003
  -0.08135773  0.02348595  0.02301337       0.003
  -0.06101830 -0.05871489  0.02301337       0.003
   0.02033943 -0.08220084  0.02301337       0.003
   0.02033943  0.08220084 -0.02301337       0.003
   0.08135773  0.02348595 -0.02301337       0.003
   0.06101830 -0.05871489 -0.02301337       0.003
  -0.02033943 -0.08220084 -0.02301337       0.003
  -0.08135773 -0.02348595 -0.02301337       0.003
  -0.06101830  0.05871489 -0.02301337       0.003
   0.10169717 -0.03522893  0.02301337       0.003
   0.08135773  0.07045786  0.02301337       0.003
   0.18305490 -0.01174298  0.02301337       0.003
  -0.10169717  0.03522893  0.02301337       0.003
   0.12203660  0.04697191  0.02301337       0.003
   0.02033943 -0.10568680  0.02301337       0.003
   0.02033943  0.10568680 -0.02301337       0.003
   0.10169717  0.03522893 -0.02301337       0.003
   0.08135773 -0.07045786 -0.02301337       0.003
   0.18305490  0.01174298 -0.02301337       0.003
  -0.10169717 -0.03522893 -0.02301337       0.003
   0.12203660 -0.04697191 -0.02301337       0.003
   0.08135773 -0.00000000  0.02301337       0.003
   0.04067887  0.07045786  0.02301337       0.003
  -0.04067887  0.07045786  0.02301337       0.003
  -0.08135773 -0.00000000  0.02301337       0.003
  -0.04067887 -0.07045786  0.02301337       0.003
   0.04067887 -0.07045786  0.02301337       0.003
   0.10169717 -0.01174298  0.02301337       0.003
   0.06101830  0.08220084  0.02301337       0.003
   0.16271547 -0.02348595  0.02301337       0.003
  -0.10169717  0.01174298  0.02301337       0.003
   0.14237603  0.03522893  0.02301337       0.003
   0.04067887 -0.09394382  0.02301337       0.003
   0.04067887  0.09394382 -0.02301337       0.003
   0.10169717  0.01174298 -0.02301337       0.003
   0.06101830 -0.08220084 -0.02301337       0.003
   0.16271547  0.02348595 -0.02301337       0.003
  -0.10169717 -0.01174298 -0.02301337       0.003
   0.14237603 -0.03522893 -0.02301337       0.003
   0.12203660 -0.02348595  0.02301337       0.003
  -0.12203660 -0.02348595  0.02301337       0.003
   0.16271547 -0.00000000  0.02301337       0.003
  -0.12203660  0.02348595  0.02301337       0.003
   0.12203660  0.02348595  0.02301337       0.003
  -0.16271547  0.00000000  0.02301337       0.003
   0.12203660 -0.00000000  0.02301337       0.003
  -0.14237603 -0.01174298  0.02301337       0.003
   0.14237603 -0.01174298  0.02301337       0.003
  -0.12203660 -0.00000000  0.02301337       0.003
   0.14237603  0.01174298  0.02301337       0.003
  -0.14237603  0.01174298  0.02301337       0.003
   0.00000000  0.00000000  0.04602674       0.003
   0.02033943 -0.01174298  0.04602674       0.003
   0.02033943  0.01174298  0.04602674       0.003
   0.00000000  0.02348595  0.04602674       0.003
  -0.02033943  0.01174298  0.04602674       0.003
  -0.02033943 -0.01174298  0.04602674       0.003
   0.00000000 -0.02348595  0.04602674       0.003
   0.04067887 -0.02348595  0.04602674       0.003
   0.04067887  0.02348595  0.04602674       0.003
   0.00000000  0.04697191  0.04602674       0.003
  -0.04067887  0.02348595  0.04602674       0.003
  -0.04067887 -0.02348595  0.04602674       0.003
   0.00000000 -0.04697191  0.04602674       0.003
   0.06101830 -0.03522893  0.04602674       0.003
   0.06101830  0.03522893  0.04602674       0.003
   0.00000000  0.07045786  0.04602674       0.003
  -0.06101830  0.03522893  0.04602674       0.003
  -0.06101830 -0.03522893  0.04602674       0.003
   0.00000000 -0.07045786  0.04602674       0.003
   0.08135773 -0.04697191  0.04602674       0.003
   0.08135773  0.04697191  0.04602674       0.003
   0.00000000  0.09394382  0.04602674       0.003
  -0.08135773  0.04697191  0.04602674       0.003
  -0.08135773 -0.04697191  0.04602674       0.003
   0.00000000 -0.09394382  0.04602674       0.003
   0.10169717 -0.05871489  0.04602674       0.003
   0.10169717  0.05871489  0.04602674       0.003
   0.20339433  0.00000000  0.04602674       0.003
   0.04067887  0.00000000  0.04602674       0.003
   0.02033943  0.03522893  0.04602674       0.003
  -0.02033943  0.03522893  0.04602674       0.003
  -0.04067887 -0.00000000  0.04602674       0.003
  -0.02033943 -0.03522893  0.04602674       0.003
   0.02033943 -0.03522893  0.04602674       0.003
   0.06101830 -0.01174298  0.04602674       0.003
   0.04067887  0.04697191  0.04602674       0.003
  -0.02033943  0.05871489  0.04602674       0.003
  -0.06101830  0.01174298  0.04602674       0.003
  -0.04067887 -0.04697191  0.04602674       0.003
   0.02033943 -0.05871489  0.04602674       0.003
   0.02033943  0.05871489 -0.04602674       0.003
   0.06101830  0.01174298 -0.04602674       0.003
   0.04067887 -0.04697191 -0.04602674       0.003
  -0.02033943 -0.05871489 -0.04602674       0.003
  -0.06101830 -0.01174298 -0.04602674       0.003
  -0.04067887  0.04697191 -0.04602674       0.003
   0.08135773 -0.02348595  0.04602674       0.003
   0.06101830  0.05871489  0.04602674       0.003
  -0.02033943  0.08220084  0.04602674       0.003
  -0.08135773  0.02348595  0.04602674       0.003
  -0.06101830 -0.05871489  0.04602674       0.003
   0.02033943 -0.08220084  0.04602674       0.003
   0.02033943  0.08220084 -0.04602674       0.003
   0.08135773  0.02348595 -0.04602674       0.003
   0.06101830 -0.05871489 -0.04602674       0.003
  -0.02033943 -0.08220084 -0.04602674       0.003
  -0.08135773 -0.02348595 -0.04602674       0.003
  -0.06101830  0.05871489 -0.04602674       0.003
   0.10169717 -0.03522893  0.04602674       0.003
   0.08135773  0.07045786  0.04602674       0.003
   0.18305490 -0.01174298  0.04602674       0.003
  -0.10169717  0.03522893  0.04602674       0.003
   0.12203660  0.04697191  0.04602674       0.003
   0.02033943 -0.10568680  0.04602674       0.003
   0.02033943  0.10568680 -0.04602674       0.003
   0.10169717  0.03522893 -0.04602674       0.003
   0.08135773 -0.07045786 -0.04602674       0.003
   0.18305490  0.01174298 -0.04602674       0.003
  -0.10169717 -0.03522893 -0.04602674       0.003
   0.12203660 -0.04697191 -0.04602674       0.003
   0.08135773 -0.00000000  0.04602674       0.003
   0.04067887  0.07045786  0.04602674       0.003
  -0.04067887  0.07045786  0.04602674       0.003
  -0.08135773 -0.00000000  0.04602674       0.003
  -0.04067887 -0.07045786  0.04602674       0.003
   0.04067887 -0.07045786  0.04602674       0.003
   0.10169717 -0.01174298  0.04602674       0.003
   0.06101830  0.08220084  0.04602674       0.003
   0.16271547 -0.02348595  0.04602674       0.003
  -0.10169717  0.01174298  0.04602674       0.003
   0.14237603  0.03522893  0.04602674       0.003
   0.04067887 -0.09394382  0.04602674       0.003
   0.04067887  0.09394382 -0.04602674       0.003
   0.10169717  0.01174298 -0.04602674       0.003
   0.06101830 -0.08220084 -0.04602674       0.003
   0.16271547  0.02348595 -0.04602674       0.003
  -0.10169717 -0.01174298 -0.04602674       0.003
   0.14237603 -0.03522893 -0.04602674       0.003
   0.12203660 -0.02348595  0.04602674       0.003
  -0.12203660 -0.02348595  0.04602674       0.003
   0.16271547 -0.00000000  0.04602674       0.003
  -0.12203660  0.02348595  0.04602674       0.003
   0.12203660  0.02348595  0.04602674       0.003
  -0.16271547  0.00000000  0.04602674       0.003
   0.12203660 -0.00000000  0.04602674       0.003
  -0.14237603 -0.01174298  0.04602674       0.003
   0.14237603 -0.01174298  0.04602674       0.003
  -0.12203660 -0.00000000  0.04602674       0.003
   0.14237603  0.01174298  0.04602674       0.003
  -0.14237603  0.01174298  0.04602674       0.003
   0.00000000  0.00000000  0.06904011       0.003
   0.02033943 -0.01174298  0.06904011       0.003
   0.02033943  0.01174298  0.06904011       0.003
   0.00000000  0.02348595  0.06904011       0.003
  -0.02033943  0.01174298  0.06904011       0.003
  -0.02033943 -0.01174298  0.06904011       0.003
   0.00000000 -0.02348595  0.06904011       0.003
   0.04067887 -0.02348595  0.06904011       0.003
   0.04067887  0.02348595  0.06904011       0.003
   0.00000000  0.04697191  0.06904011       0.003
  -0.04067887  0.02348595  0.06904011       0.003
  -0.04067887 -0.02348595  0.06904011       0.003
   0.00000000 -0.04697191  0.06904011       0.003
   0.06101830 -0.03522893  0.06904011       0.003
   0.06101830  0.03522893  0.06904011       0.003
   0.00000000  0.07045786  0.06904011       0.003
  -0.06101830  0.03522893  0.06904011       0.003
  -0.06101830 -0.03522893  0.06904011       0.003
   0.00000000 -0.07045786  0.06904011       0.003
   0.08135773 -0.04697191  0.06904011       0.003
   0.08135773  0.04697191  0.06904011       0.003
   0.00000000  0.09394382  0.06904011       0.003
  -0.08135773  0.04697191  0.06904011       0.003
  -0.08135773 -0.04697191  0.06904011       0.003
   0.00000000 -0.09394382  0.06904011       0.003
   0.10169717 -0.05871489  0.06904011       0.003
   0.10169717  0.05871489  0.06904011       0.003
   0.20339433  0.00000000  0.06904011       0.003
   0.04067887  0.00000000  0.06904011       0.003
   0.02033943  0.03522893  0.06904011       0.003
  -0.02033943  0.03522893  0.06904011       0.003
  -0.04067887 -0.00000000  0.06904011       0.003
  -0.02033943 -0.03522893  0.06904011       0.003
   0.02033943 -0.03522893  0.06904011       0.003
   0.06101830 -0.01174298  0.06904011       0.003
   0.04067887  0.04697191  0.06904011       0.003
  -0.02033943  0.05871489  0.06904011       0.003
  -0.06101830  0.01174298  0.06904011       0.003
  -0.04067887 -0.04697191  0.06904011       0.003
   0.02033943 -0.05871489  0.06904011       0.003
   0.02033943  0.05871489 -0.06904011       0.003
   0.06101830  0.01174298 -0.06904011       0.003
   0.04067887 -0.04697191 -0.06904011       0.003
  -0.02033943 -0.05871489 -0.06904011       0.003
  -0.06101830 -0.01174298 -0.06904011       0.003
  -0.04067887  0.04697191 -0.06904011       0.003
   0.08135773 -0.02348595  0.06904011       0.003
   0.06101830  0.05871489  0.06904011       0.003
  -0.02033943  0.08220084  0.06904011       0.003
  -0.08135773  0.02348595  0.06904011       0.003
  -0.06101830 -0.05871489  0.06904011       0.003
   0.02033943 -0.08220084  0.06904011       0.003
   0.02033943  0.08220084 -0.06904011       0.003
   0.08135773  0.02348595 -0.06904011       0.003
   0.06101830 -0.05871489 -0.06904011       0.003
  -0.02033943 -0.08220084 -0.06904011       0.003
  -0.08135773 -0.02348595 -0.06904011       0.003
  -0.06101830  0.05871489 -0.06904011       0.003
   0.10169717 -0.03522893  0.06904011       0.003
   0.08135773  0.07045786  0.06904011       0.003
   0.18305490 -0.01174298  0.06904011       0.003
  -0.10169717  0.03522893  0.06904011       0.003
   0.12203660  0.04697191  0.06904011       0.003
   0.02033943 -0.10568680  0.06904011       0.003
   0.02033943  0.10568680 -0.06904011       0.003
   0.10169717  0.03522893 -0.06904011       0.003
   0.08135773 -0.07045786 -0.06904011       0.003
   0.18305490  0.01174298 -0.06904011       0.003
  -0.10169717 -0.03522893 -0.06904011       0.003
   0.12203660 -0.04697191 -0.06904011       0.003
   0.08135773 -0.00000000  0.06904011       0.003
   0.04067887  0.07045786  0.06904011       0.003
  -0.04067887  0.07045786  0.06904011       0.003
  -0.08135773 -0.00000000  0.06904011       0.003
  -0.04067887 -0.07045786  0.06904011       0.003
   0.04067887 -0.07045786  0.06904011       0.003
   0.10169717 -0.01174298  0.06904011       0.003
   0.06101830  0.08220084  0.06904011       0.003
   0.16271547 -0.02348595  0.06904011       0.003
  -0.10169717  0.01174298  0.06904011       0.003
   0.14237603  0.03522893  0.06904011       0.003
   0.04067887 -0.09394382  0.06904011       0.003
   0.04067887  0.09394382 -0.06904011       0.003
   0.10169717  0.01174298 -0.06904011       0.003
   0.06101830 -0.08220084 -0.06904011       0.003
   0.16271547  0.02348595 -0.06904011       0.003
  -0.10169717 -0.01174298 -0.06904011       0.003
   0.14237603 -0.03522893 -0.06904011       0.003
   0.12203660 -0.02348595  0.06904011       0.003
  -0.12203660 -0.02348595  0.06904011       0.003
   0.16271547 -0.00000000  0.06904011       0.003
  -0.12203660  0.02348595  0.06904011       0.003
   0.12203660  0.02348595  0.06904011       0.003
  -0.16271547  0.00000000  0.06904011       0.003
   0.12203660 -0.00000000  0.06904011       0.003
  -0.14237603 -0.01174298  0.06904011       0.003
   0.14237603 -0.01174298  0.06904011       0.003
  -0.12203660 -0.00000000  0.06904011       0.003
   0.14237603  0.01174298  0.06904011       0.003
  -0.14237603  0.01174298  0.06904011       0.003
   0.00000000  0.00000000  0.09205348       0.001
   0.02033943 -0.01174298  0.09205348       0.003
   0.02033943  0.01174298  0.09205348       0.003
   0.00000000  0.02348595  0.09205348       0.003
   0.04067887 -0.02348595  0.09205348       0.003
   0.04067887  0.02348595  0.09205348       0.003
   0.00000000  0.04697191  0.09205348       0.003
   0.06101830 -0.03522893  0.09205348       0.003
   0.06101830  0.03522893  0.09205348       0.003
   0.00000000  0.07045786  0.09205348       0.003
   0.08135773 -0.04697191  0.09205348       0.003
   0.08135773  0.04697191  0.09205348       0.003
   0.00000000  0.09394382  0.09205348       0.003
   0.10169717 -0.05871489  0.09205348       0.001
   0.10169717  0.05871489  0.09205348       0.001
   0.20339433  0.00000000  0.09205348       0.001
   0.04067887  0.00000000  0.09205348       0.003
   0.02033943  0.03522893  0.09205348       0.003
  -0.02033943  0.03522893  0.09205348       0.003
[...]
      3     -16.8696      2.00000
      4     -16.2715      2.00000
      5     -16.2132      2.00000
      6     -16.2060      2.00000
      7      -7.1536      2.00000
      8      -6.1535      2.00000
      9      -5.4228      2.00000
     10      -4.1585      2.00000
     11      -4.0460      2.00000
     12      -3.8644      2.00000
     13      -2.1635      2.00000
     14      -1.9571      2.00000
     15      -1.4747      2.00000
     16      -1.1087      2.00000
     17      -0.8853      2.00000
     18      -0.6354      2.00000
     19      -0.0969      2.00000
     20      -0.0016      2.00000
     21       0.1309      2.00000
     22       0.3339      2.00000
     23       0.4990      2.00000
     24       0.7114      2.00000
     25       9.8176      0.00000
     26      10.3345      0.00000
     27      10.6858      0.00000
     28      10.9665      0.00000
     29      11.3458      0.00000
     30      11.5426      0.00000
     31      11.6127      0.00000
     32      12.2930      0.00000
     33      12.3786      0.00000
     34      12.9612      0.00000
     35      13.1379      0.00000
     36      13.5300      0.00000

 k-point   398 :       0.5000   -0.2000    0.5000
  band No.  band energies     occupation 
      1     -17.7881      2.00000
      2     -17.3912      2.00000
      3     -16.8697      2.00000
      4     -16.2715      2.00000
      5     -16.2132      2.00000
      6     -16.2060      2.00000
      7      -7.1536      2.00000
      8      -6.1535      2.00000
      9      -5.4228      2.00000
     10      -4.1585      2.00000
     11      -4.0460      2.00000
     12      -3.8644      2.00000
     13      -2.1635      2.00000
     14      -1.9571      2.00000
     15      -1.4747      2.00000
     16      -1.1087      2.00000
     17      -0.8853      2.00000
     18      -0.6354      2.00000
     19      -0.0969      2.00000
     20      -0.0016      2.00000
     21       0.1308      2.00000
     22       0.3339      2.00000
     23       0.4990      2.00000
     24       0.7114      2.00000
     25       9.8177      0.00000
     26      10.3344      0.00000
     27      10.6857      0.00000
     28      10.9665      0.00000
     29      11.3458      0.00000
     30      11.5426      0.00000
     31      11.6127      0.00000
     32      12.2930      0.00000
     33      12.3786      0.00000
     34      12.9612      0.00000
     35      13.1379      0.00000
     36      13.5300      0.00000

 k-point   399 :       0.4000    0.2000    0.5000
  band No.  band energies     occupation 
      1     -17.7788      2.00000
      2     -17.2824      2.00000
      3     -16.9914      2.00000
      4     -16.2782      2.00000
      5     -16.2176      2.00000
      6     -16.2091      2.00000
      7      -6.9529      2.00000
      8      -6.3354      2.00000
      9      -5.4377      2.00000
     10      -4.1397      2.00000
     11      -4.0116      2.00000
     12      -3.8956      2.00000
     13      -2.1882      2.00000
     14      -1.9339      2.00000
     15      -1.5330      2.00000
     16      -0.9945      2.00000
     17      -0.9202      2.00000
     18      -0.6922      2.00000
     19      -0.0046      2.00000
     20       0.0246      2.00000
     21       0.1910      2.00000
     22       0.2500      2.00000
     23       0.4388      2.00000
     24       0.6850      2.00000
     25       9.9147      0.00000
     26      10.5940      0.00000
     27      10.8156      0.00000
     28      10.9310      0.00000
     29      11.1403      0.00000
     30      11.5381      0.00000
     31      11.6894      0.00000
     32      12.1881      0.00000
     33      12.5391      0.00000
     34      12.8230      0.00000
     35      13.0008      0.00000
     36      13.2953      0.00000

 k-point   400 :      -0.2000   -0.4000    0.5000
  band No.  band energies     occupation 
      1     -17.7788      2.00000
      2     -17.2824      2.00000
      3     -16.9914      2.00000
      4     -16.2782      2.00000
      5     -16.2176      2.00000
      6     -16.2091      2.00000
      7      -6.9529      2.00000
      8      -6.3354      2.00000
      9      -5.4377      2.00000
     10      -4.1397      2.00000
     11      -4.0116      2.00000
     12      -3.8956      2.00000
     13      -2.1882      2.00000
     14      -1.9339      2.00000
     15      -1.5330      2.00000
     16      -0.9945      2.00000
     17      -0.9202      2.00000
     18      -0.6922      2.00000
     19      -0.0046      2.00000
     20       0.0246      2.00000
     21       0.1910      2.00000
     22       0.2500      2.00000
     23       0.4388      2.00000
     24       0.6850      2.00000
     25       9.9147      0.00000
     26      10.5940      0.00000
     27      10.8156      0.00000
     28      10.9310      0.00000
     29      11.1403      0.00000
     30      11.5381      0.00000
     31      11.6894      0.00000
     32      12.1881      0.00000
     33      12.5391      0.00000
     34      12.8230      0.00000
     35      13.0008      0.00000
     36      13.2953      0.00000

 k-point   401 :       0.4000    0.4000    0.5000
  band No.  band energies     occupation 
      1     -17.7788      2.00000
      2     -17.2824      2.00000
      3     -16.9914      2.00000
      4     -16.2782      2.00000
      5     -16.2176      2.00000
      6     -16.2091      2.00000
      7      -6.9529      2.00000
      8      -6.3355      2.00000
      9      -5.4377      2.00000
     10      -4.1397      2.00000
     11      -4.0116      2.00000
     12      -3.8956      2.00000
     13      -2.1881      2.00000
     14      -1.9339      2.00000
     15      -1.5330      2.00000
     16      -0.9945      2.00000
     17      -0.9202      2.00000
     18      -0.6922      2.00000
     19      -0.0046      2.00000
     20       0.0245      2.00000
     21       0.1910      2.00000
     22       0.2500      2.00000
     23       0.4388      2.00000
     24       0.6850      2.00000
     25       9.9147      0.00000
     26      10.5941      0.00000
     27      10.8155      0.00000
     28      10.9310      0.00000
     29      11.1403      0.00000
     30      11.5382      0.00000
     31      11.6894      0.00000
     32      12.1881      0.00000
     33      12.5391      0.00000
     34      12.8230      0.00000
     35      13.0007      0.00000
     36      13.2954      0.00000

 k-point   402 :       0.3000    0.3000    0.5000
  band No.  band energies     occupation 
      1     -17.7720      2.00000
      2     -17.2361      2.00000
      3     -17.0403      2.00000
      4     -16.2777      2.00000
      5     -16.2194      2.00000
      6     -16.2192      2.00000
      7      -6.8251      2.00000
      8      -6.4384      2.00000
      9      -5.4727      2.00000
     10      -4.0888      2.00000
     11      -4.0412      2.00000
     12      -3.9073      2.00000
     13      -2.1979      2.00000
     14      -1.8373      2.00000
     15      -1.6366      2.00000
     16      -0.9707      2.00000
     17      -0.8532      2.00000
     18      -0.7959      2.00000
     19       0.0585      2.00000
     20       0.0865      2.00000
     21       0.1513      2.00000
     22       0.2984      2.00000
     23       0.4594      2.00000
     24       0.5581      2.00000
     25       9.9347      0.00000
     26      10.6718      0.00000
     27      10.8910      0.00000
     28      10.9248      0.00000
     29      11.2288      0.00000
     30      11.3473      0.00000
     31      11.8345      0.00000
     32      12.1163      0.00000
     33      12.5599      0.00000
     34      12.9135      0.00000
     35      12.9559      0.00000
     36      13.0428      0.00000

 k-point   403 :      -0.3000   -0.4000    0.5000
  band No.  band energies     occupation 
      1     -17.7720      2.00000
      2     -17.2361      2.00000
      3     -17.0404      2.00000
      4     -16.2777      2.00000
      5     -16.2194      2.00000
      6     -16.2192      2.00000
      7      -6.8250      2.00000
      8      -6.4384      2.00000
      9      -5.4727      2.00000
     10      -4.0888      2.00000
     11      -4.0412      2.00000
     12      -3.9073      2.00000
     13      -2.1979      2.00000
     14      -1.8372      2.00000
     15      -1.6366      2.00000
     16      -0.9707      2.00000
     17      -0.8532      2.00000
     18      -0.7959      2.00000
     19       0.0585      2.00000
     20       0.0865      2.00000
     21       0.1513      2.00000
     22       0.2984      2.00000
     23       0.4594      2.00000
     24       0.5581      2.00000
     25       9.9347      0.00000
     26      10.6718      0.00000
     27      10.8910      0.00000
     28      10.9248      0.00000
     29      11.2288      0.00000
     30      11.3473      0.00000
     31      11.8345      0.00000
     32      12.1163      0.00000
     33      12.5599      0.00000
     34      12.9134      0.00000
     35      12.9560      0.00000
     36      13.0428      0.00000

 k-point   404 :       0.4000    0.3000    0.5000
  band No.  band energies     occupation 
      1     -17.7720      2.00000
      2     -17.2361      2.00000
      3     -17.0404      2.00000
      4     -16.2777      2.00000
      5     -16.2194      2.00000
      6     -16.2192      2.00000
      7      -6.8250      2.00000
      8      -6.4384      2.00000
      9      -5.4727      2.00000
     10      -4.0888      2.00000
     11      -4.0412      2.00000
     12      -3.9073      2.00000
     13      -2.1979      2.00000
     14      -1.8372      2.00000
     15      -1.6366      2.00000
     16      -0.9707      2.00000
     17      -0.8532      2.00000
     18      -0.7959      2.00000
     19       0.0585      2.00000
     20       0.0865      2.00000
     21       0.1513      2.00000
     22       0.2984      2.00000
     23       0.4594      2.00000
     24       0.5581      2.00000
     25       9.9347      0.00000
     26      10.6718      0.00000
     27      10.8910      0.00000
     28      10.9248      0.00000
     29      11.2288      0.00000
     30      11.3473      0.00000
     31      11.8345      0.00000
     32      12.1163      0.00000
     33      12.5599      0.00000
     34      12.9134      0.00000
     35      12.9560      0.00000
     36      13.0428      0.00000


--------------------------------------------------------------------------------------------------------


 soft charge-density along one line, spin component           1
         0         1         2         3         4         5         6         7         8         9
 total charge-density along one line

 pseudopotential strength for first ion, spin component:           1
 18.764  26.181  -0.001  -0.000  -0.000  -0.001  -0.000  -0.001
 26.181  36.536  -0.001  -0.000  -0.001  -0.002  -0.000  -0.001
 -0.001  -0.001   4.218   0.000   0.000   7.863   0.000   0.000
 -0.000  -0.000   0.000   4.218  -0.000   0.000   7.863  -0.000
 -0.000  -0.001   0.000  -0.000   4.218   0.000  -0.000   7.863
 -0.001  -0.002   7.863   0.000   0.000  14.669   0.001   0.000
 -0.000  -0.000   0.000   7.863  -0.000   0.001  14.668  -0.001
 -0.001  -0.001   0.000  -0.000   7.863   0.000  -0.001  14.668
 total augmentation occupancy for first ion, spin component:           1
  2.000   0.000   0.000   0.000   0.000   0.000   0.000   0.000
  0.000   0.000   0.000   0.000   0.000   0.000   0.000   0.000
  0.000   0.000   0.667   0.000   0.000   0.000   0.000   0.000
  0.000   0.000   0.000   0.667   0.000   0.000   0.000   0.000
  0.000   0.000   0.000   0.000   0.667   0.000   0.000   0.000
  0.000   0.000   0.000   0.000   0.000   0.000   0.000   0.000
  0.000   0.000   0.000   0.000   0.000   0.000   0.000   0.000
  0.000   0.000   0.000   0.000   0.000   0.000   0.000   0.000


------------------------ aborting loop because EDIFF is reached ----------------------------------------





 total charge

# of ion       s       p       d       tot
------------------------------------------
    1        0.647   1.007   0.000   1.654
    2        0.647   1.007   0.000   1.654
    3        0.647   1.007   0.000   1.654
    4        1.550   3.704   0.000   5.255
    5        1.550   3.704   0.000   5.255
    6        1.550   3.704   0.000   5.255
    7        1.550   3.704   0.000   5.255
    8        1.550   3.704   0.000   5.255
    9        1.550   3.704   0.000   5.255
--------------------------------------------------
tot         11.241  25.247   0.000  36.489

    CHARGE:  cpu time     21.1977: real time      9.6231
    FORLOC:  cpu time      0.0132: real time      0.0021
    FORNL :  cpu time      8.5634: real time      8.5462
    STRESS:  cpu time     37.6526: real time     12.7899
    FORCOR:  cpu time      0.1826: real time      0.0418
    FORHAR:  cpu time      0.0353: real time      0.0126
    OFIELD:  cpu time      0.0001: real time      0.0001

  FORCE on cell =-STRESS in cart. coord.  units (eV):
  Direction    XX          YY          ZZ          XY          YZ          ZX
  --------------------------------------------------------------------------------------
  Alpha Z    69.31647    69.31647    69.31647
  Ewald    -650.35106  -650.35106  -589.41750     0.00000     0.00000     0.00000
  Hartree   345.39651   345.39646   376.68677     0.00000     0.00014    -0.00001
  E(xc)    -225.37295  -225.37295  -225.34054     0.00000    -0.00001     0.00000
  Local    -411.65428  -411.65438  -502.36627    -0.00001    -0.00037     0.00002
  n-local   -51.83671   -51.83677   -50.91512    -0.00000     0.00009    -0.00000
  augment    27.21107    27.21084    27.06025     0.00000     0.00002    -0.00000
  Kinetic   901.35419   901.35392   898.92672    -0.00000    -0.00001    -0.00000
  Fock        0.00000     0.00000     0.00000     0.00000     0.00000     0.00000
  -------------------------------------------------------------------------------------
  Total       4.06323     4.06253     3.95078    -0.00001    -0.00014     0.00001
  in kB      57.25308    57.24328    55.66868    -0.00008    -0.00200     0.00012
  external pressure =       56.72 kB  Pullay stress =        0.00 kB


 VOLUME and BASIS-vectors are now :
 -----------------------------------------------------------------------------
  energy-cutoff  :      520.00
  volume of cell :      113.71
      direct lattice vectors                 reciprocal lattice vectors
     2.458278904 -4.257863960  0.000000000     0.203394334 -0.117429773  0.000000000
     2.458278904  4.257863960  0.000000000     0.203394334  0.117429773 -0.000000000
     0.000000000  0.000000000  5.431625250    -0.000000000  0.000000000  0.184106958

  length of vectors
     4.916557807  4.916557807  5.431625250     0.234859547  0.234859547  0.184106958


 FORCES acting on ions
    electron-ion (+dipol)            ewald-force                    non-local-force                 convergence-correction
 -----------------------------------------------------------------------------------------------
   0.128E+01 0.221E+01 -.110E-02   -.114E+01 -.198E+01 -.526E-11   -.118E+00 -.205E+00 0.322E-03   0.136E-03 0.810E-04 0.767E-03
   -.256E+01 0.201E-05 0.354E-05   0.228E+01 0.488E-14 -.243E-12   0.237E+00 -.238E-05 -.562E-05   0.253E-03 0.994E-06 0.186E-05
   0.128E+01 -.221E+01 0.110E-02   -.114E+01 0.198E+01 0.107E-11   -.118E+00 0.205E+00 -.320E-03   0.133E-03 -.828E-04 -.768E-03
   0.283E+02 -.655E+02 -.321E+02   -.380E+02 0.811E+02 0.424E+02   0.965E+01 -.154E+02 -.102E+02   0.138E-03 -.236E-02 -.259E-02
   -.708E+02 0.827E+01 -.321E+02   0.892E+02 -.761E+01 0.424E+02   -.182E+02 -.657E+00 -.102E+02   0.107E-03 -.473E-02 -.799E-03
   0.426E+02 0.572E+02 -.321E+02   -.512E+02 -.734E+02 0.424E+02   0.851E+01 0.161E+02 -.102E+02   0.716E-04 -.370E-02 0.214E-02
   0.426E+02 -.572E+02 0.321E+02   -.512E+02 0.734E+02 -.424E+02   0.851E+01 -.161E+02 0.102E+02   0.700E-04 0.371E-02 -.213E-02
   -.708E+02 -.827E+01 0.321E+02   0.892E+02 0.761E+01 -.424E+02   -.182E+02 0.657E+00 0.102E+02   0.103E-03 0.473E-02 0.805E-03
   0.283E+02 0.655E+02 0.321E+02   -.380E+02 -.811E+02 -.424E+02   0.965E+01 0.154E+02 0.102E+02   0.141E-03 0.235E-02 0.258E-02
 -----------------------------------------------------------------------------------------------
   -.160E-02 0.366E-05 0.734E-06   -.284E-13 0.000E+00 -.711E-14   0.302E-03 -.840E-05 -.101E-04   0.115E-02 0.150E-06 0.285E-05


 POSITION                                       TOTAL-FORCE (eV/Angst)
 -----------------------------------------------------------------------------------
      1.15244      1.99608      1.81054         0.017592      0.030489     -0.000009
      2.61168      0.00000      0.00000        -0.035297      0.000001      0.000000
      1.15244     -1.99608      3.62108         0.017600     -0.030488      0.000011
      2.15340      2.49895      2.97555        -0.111419      0.209016      0.140355
      3.54573      1.14349      4.78609         0.236643     -0.007380      0.140422
      1.67571      0.61542      1.16501        -0.125173     -0.200636      0.140721
      1.67571     -0.61542      4.26662        -0.125175      0.200629     -0.140725
      3.54573     -1.14349      0.64553         0.236649      0.007383     -0.140422
      2.15340     -2.49895      2.45607        -0.111419     -0.209014     -0.140352
 -----------------------------------------------------------------------------------
    total drift:                               -0.000141     -0.000005     -0.000006


--------------------------------------------------------------------------------------------------------



  FREE ENERGIE OF THE ION-ELECTRON SYSTEM (eV)
  ---------------------------------------------------
  free  energy   TOTEN  =       -71.05419122 eV

  energy  without entropy=      -71.05419122  energy(sigma->0) =      -71.05419122



--------------------------------------------------------------------------------------------------------


    POTLOK:  cpu time      0.1560: real time      0.0379


--------------------------------------------------------------------------------------------------------


 writing wavefunctions
     LOOP+:  cpu time   3829.6068: real time   1421.6110
    4ORBIT:  cpu time      0.0000: real time      0.0000



 total charge

# of ion       s       p       d       tot
------------------------------------------
    1        0.647   1.007   0.000   1.654
    2        0.647   1.007   0.000   1.654
    3        0.647   1.007   0.000   1.654
    4        1.550   3.704   0.000   5.255
    5        1.550   3.704   0.000   5.255
    6        1.550   3.704   0.000   5.255
    7        1.550   3.704   0.000   5.255
    8        1.550   3.704   0.000   5.255
    9        1.550   3.704   0.000   5.255
--------------------------------------------------
tot         11.241  25.247   0.000  36.489

 BZINTS: Fermi energy:    1.055528;   48.000000 electrons
         Band energy:-0.276270E+03;  BLOECHL correction:    0.000000

 total amount of memory used by VASP MPI-rank0   971721. kBytes
=======================================================================

   base      :      30000. kBytes
   nonl-proj :     159509. kBytes
   fftplans  :      17864. kBytes
   grid      :      31769. kBytes
   one-center:         27. kBytes
   wavefun   :     732552. kBytes

  
  
 General timing and accounting informations for this job:
 ========================================================
  
                  Total CPU time used (sec):     3838.044
                            User time (sec):     1730.040
                          System time (sec):     2108.004
                         Elapsed time (sec):     1425.666
  
                   Maximum memory used (kb):  1104592896.
                   Average memory used (kb):          N/A
  
                          Minor page faults:        71705
                          Major page faults:           36
                 Voluntary context switches:          113
