72   
4    

1    
  0.0033749968256213  -0.0058456659773597   0.0073781830899067
  -0.0168537000    0.0298346900   -0.0388933500
   0.0013484700   -0.0025782700   -0.0008419000
  -0.0000507700   -0.0058093500   -0.0027804500
  -0.0007235700   -0.0016633900   -0.0010656500
  -0.0002881200    0.0028987600   -0.0025495000
   0.0004379600   -0.0007360200   -0.0007773400
  -0.0021141600   -0.0012431600   -0.0000953400
   0.0004422100   -0.0007363000   -0.0007807900
   0.0042709700    0.0043139500   -0.0035158900
   0.0000507700   -0.0000681800    0.0021491100
   0.0003801300   -0.0001635700    0.0001509600
   0.0001518400    0.0007433800    0.0009787500
  -0.0001881900    0.0005839500    0.0004836000
   0.0005118300   -0.0002610700    0.0006482200
   0.0000459300   -0.0000463300    0.0004151600
  -0.0004215000   -0.0000690300    0.0000711000
   0.0000408500   -0.0000460600    0.0004073400
  -0.0006080500   -0.0003938400    0.0010599500
   0.0000871800   -0.0047017800    0.0026241700
  -0.0000875400   -0.0008725400    0.0003827400
  -0.0057466500    0.0031890700    0.0005367900
   0.0049601100    0.0026382800    0.0015681900
   0.0005776900    0.0000523400    0.0003372900
  -0.0003571900    0.0001237900    0.0001753300
   0.0004320300   -0.0006717600    0.0003882900
   0.0003485600    0.0002807500    0.0003729900
  -0.0006199600    0.0004436500    0.0002570400
   0.0000903000    0.0022320200   -0.0028908000
   0.0003567600   -0.0006185000    0.0003846800
   0.0002504100   -0.0002720400    0.0060260700
  -0.0010323500   -0.0008300400    0.0015709900
   0.0002269600    0.0002626400    0.0000163400
  -0.0003567700   -0.0002826000    0.0004967400
  -0.0000128600   -0.0004163800   -0.0000099900
   0.0003449600   -0.0002361800    0.0007792100
  -0.0002700300    0.0006500500    0.0002561400
   0.0017498800   -0.0030319200    0.0204822400
  -0.0005869500    0.0011463800   -0.0000649000
   0.0005119200   -0.0000563700    0.0012019400
  -0.0003706900   -0.0005004200    0.0005329000
  -0.0009542200   -0.0004130700    0.0005451700
  -0.0000854800    0.0000878500    0.0002867500
   0.0006882400    0.0009055100   -0.0001257300
  -0.0001414300    0.0002760900    0.0003370200
   0.0004847300   -0.0005472800    0.0011863400
   0.0003942700   -0.0007155300   -0.0015355900
  -0.0005757500    0.0002159800    0.0003867200
  -0.0000584300    0.0006483500   -0.0013511800
   0.0002397300    0.0000639100   -0.0003171000
  -0.0000244000   -0.0000653600   -0.0006747400
   0.0000062400    0.0000514000   -0.0002275600
   0.0006188100    0.0000864300    0.0005929700
  -0.0001444300    0.0002726300   -0.0003041200
  -0.0004795900   -0.0004157000   -0.0015296700
  -0.0000247400    0.0005085500   -0.0012993100
  -0.0001027200    0.0002183000   -0.0002399300
   0.0010445900   -0.0005721700   -0.0018428200
  -0.0007719500   -0.0003618700   -0.0015489300
  -0.0002814100   -0.0000000600   -0.0002013300
   0.0001412800   -0.0001316800   -0.0001891400
  -0.0000546100    0.0001404300   -0.0001924800
  -0.0001263500    0.0000553600   -0.0002646700
   0.0002819300   -0.0001438100   -0.0001631700
   0.0014231300   -0.0090502700    0.0010864300
  -0.0008052100    0.0018820500    0.0002502000
   0.0166321700   -0.0113370400    0.0097964000
  -0.0035501900   -0.0054536300    0.0055851800
  -0.0004464700   -0.0001748400    0.0003732600
   0.0003975400    0.0010909300    0.0002686000
   0.0003174200    0.0009987200    0.0001388200
  -0.0010276200   -0.0003208400    0.0003899300
   0.0000562400   -0.0008879400    0.0002953200

1    
 -0.0033749968256213   0.0058456659773597  -0.0073781830899067
   0.0179287600   -0.0303104700    0.0383286400
  -0.0013417300    0.0026058900    0.0008269000
   0.0000371500    0.0058721600    0.0027727800
   0.0007293000    0.0017070400    0.0010551700
   0.0002922000   -0.0028595600    0.0025389600
  -0.0004426100    0.0007849200    0.0007758200
   0.0021179100    0.0012825800    0.0000893600
  -0.0004402100    0.0007870500    0.0007739000
  -0.0042792300   -0.0042727800    0.0035094500
  -0.0000526600    0.0001041300   -0.0021556100
  -0.0003928300    0.0002127900   -0.0001505800
  -0.0001506200   -0.0006974300   -0.0009834700
   0.0001876400   -0.0005344400   -0.0004814900
  -0.0005080600    0.0003110700   -0.0006484300
  -0.0000331000    0.0000961800   -0.0004161100
   0.0004228800    0.0001273000   -0.0000708400
  -0.0000372500    0.0000919000   -0.0004178600
   0.0006076700    0.0004307600   -0.0010638200
  -0.0000938400    0.0046560900   -0.0025897100
   0.0000883400    0.0008236900   -0.0003830600
   0.0057358400   -0.0032311900   -0.0005356500
  -0.0049645400   -0.0026839900   -0.0015721300
  -0.0005763100   -0.0001054400   -0.0003411500
   0.0003563300   -0.0001685700   -0.0001751800
  -0.0004307600    0.0006274000   -0.0003930000
  -0.0003462500   -0.0003236900   -0.0003787800
   0.0006233400   -0.0004965900   -0.0002547800
  -0.0000887100   -0.0022818500    0.0028823800
  -0.0003567500    0.0005751900   -0.0003841700
  -0.0002793700    0.0002361400   -0.0060356400
   0.0010503200    0.0007882200   -0.0015691000
  -0.0002272500   -0.0003065800   -0.0000127300
   0.0003644800    0.0002358100   -0.0004989800
   0.0000043200    0.0003725800    0.0000114500
  -0.0003447000    0.0001828100   -0.0007844200
   0.0002719300   -0.0006958700   -0.0002570900
  -0.0017390600    0.0031311100   -0.0195998700
   0.0006368500   -0.0011436500    0.0000908000
  -0.0005220200    0.0001443900   -0.0011847300
   0.0003749600    0.0005420300   -0.0005502200
   0.0009701100    0.0004091400   -0.0005178800
   0.0000115000   -0.0000898500   -0.0002295500
  -0.0006738200   -0.0009432900    0.0000876800
   0.0001478000   -0.0002412000   -0.0002500700
  -0.0005347100    0.0006053700   -0.0012534800
  -0.0003862600    0.0006693100    0.0014860700
   0.0005022900   -0.0002342100   -0.0003641200
   0.0000485900   -0.0005562100    0.0013196400
  -0.0002747100   -0.0000075800    0.0002945700
   0.0000729700    0.0001387500    0.0006221600
   0.0000708400   -0.0000538200    0.0002336200
  -0.0006256700   -0.0000103100   -0.0005530400
   0.0001873800   -0.0002677600    0.0003045300
   0.0004201800    0.0003889100    0.0015406700
   0.0000262500   -0.0004827700    0.0013498300
   0.0001221200   -0.0002785300    0.0002081200
  -0.0010128400    0.0005641400    0.0019083100
   0.0007740800    0.0003160800    0.0015863600
   0.0002895100    0.0000275900    0.0001637800
  -0.0001566300    0.0000779500    0.0001880100
   0.0000465700   -0.0001943300    0.0001646100
   0.0000957000   -0.0000924600    0.0002632000
  -0.0002889600    0.0001315900    0.0002099600
  -0.0014641900    0.0090576900   -0.0011592100
   0.0008405900   -0.0018742700   -0.0003051500
  -0.0176275900    0.0117713500   -0.0100496000
   0.0034986800    0.0053967700   -0.0054901400
   0.0004122500    0.0001670500   -0.0003340200
  -0.0003636700   -0.0011719600   -0.0003007300
  -0.0003912900   -0.0009834400   -0.0001243500
   0.0010775200    0.0002279000   -0.0004281700
   0.0000030800    0.0009152700   -0.0003385900

37   
  0.0033749968256213  -0.0058456659773597   0.0073781830899067
   0.0017950900   -0.0031054800    0.0195518400
   0.0004198300   -0.0000257300    0.0012746300
  -0.0001433500    0.0013032700   -0.0002189200
   0.0002206800    0.0008177400   -0.0000288800
   0.0006361200   -0.0006289400    0.0010831500
  -0.0001402100    0.0002672300    0.0002717500
  -0.0002667600   -0.0002051200    0.0007256400
  -0.0000451900    0.0001049500    0.0002441600
  -0.0010971600   -0.0007167000    0.0003314300
   0.0003968600   -0.0006718100   -0.0015285500
  -0.0015453200    0.0007967900   -0.0005288300
  -0.0002861500   -0.0006600300   -0.0004612400
   0.0003707700   -0.0013023700   -0.0004332600
  -0.0009248300    0.0005743600   -0.0005515100
  -0.0001424200    0.0002795700   -0.0003495300
   0.0017381400    0.0007102900   -0.0004674700
  -0.0000221900    0.0000661400   -0.0002816300
   0.0004315900    0.0003914600   -0.0005177200
   0.0014325900   -0.0209775100    0.0102105200
  -0.0011653300    0.0016809700    0.0002551100
   0.0072870900   -0.0059534300    0.0009604300
   0.0062734900    0.0002166100    0.0054748200
  -0.0008544400    0.0000076400   -0.0000442500
   0.0003940900    0.0006351200    0.0006273200
   0.0006985500    0.0007663600    0.0004417700
  -0.0010288600    0.0000907700    0.0000742000
   0.0004434300   -0.0006898000    0.0002961700
  -0.0000339700   -0.0000158800   -0.0009544900
  -0.0000672700    0.0002228000   -0.0002488600
   0.0006230800   -0.0003409100   -0.0022819600
  -0.0003442100   -0.0001340500   -0.0016171700
  -0.0001232300   -0.0001174400   -0.0000848100
   0.0001460000    0.0000298700   -0.0003209700
  -0.0000792100    0.0001589200   -0.0002424100
  -0.0001223800    0.0000039600   -0.0002507600
   0.0001425800   -0.0002689500   -0.0002072100
  -0.0250377300    0.0440618200   -0.0551427600
   0.0019565700   -0.0048573600   -0.0002425300
   0.0030971200   -0.0050081400   -0.0008711800
  -0.0018566100   -0.0030033600   -0.0005163900
   0.0027929100    0.0006663500   -0.0006339200
   0.0001261500   -0.0002314600   -0.0001677800
  -0.0006798100   -0.0019072900   -0.0001702100
   0.0001372300   -0.0002065500   -0.0001645900
   0.0027614200    0.0002247300   -0.0009538600
  -0.0001305400    0.0002167500    0.0008835200
   0.0002043700   -0.0001382700    0.0008054800
  -0.0000060900   -0.0001805900    0.0008198200
  -0.0000613900    0.0000812100    0.0008019100
   0.0000464000    0.0000814000    0.0007986800
   0.0000544000   -0.0000426600    0.0001887000
  -0.0002866500   -0.0000756900    0.0007958800
   0.0000408500   -0.0000457000    0.0001986100
   0.0001594600    0.0001675900    0.0008262800
  -0.0003470700   -0.0040049600    0.0051843400
   0.0002841900   -0.0003235300   -0.0000229600
  -0.0011970200    0.0010641600    0.0022556800
   0.0020796100    0.0019561200    0.0037322500
   0.0004168200   -0.0001291000    0.0002051400
  -0.0000911700    0.0000653400   -0.0001151100
  -0.0001986600   -0.0001272300   -0.0000757700
   0.0001975100   -0.0000941600    0.0000607900
  -0.0003031500    0.0000226200    0.0000621300
  -0.0003150600    0.0006243900    0.0015226900
   0.0001366100   -0.0003750900   -0.0000293000
   0.0027555000   -0.0012437300    0.0059058300
  -0.0018966300   -0.0003526500    0.0037410800
  -0.0000007000    0.0000929200   -0.0001320100
  -0.0000740300   -0.0003915100    0.0002533200
  -0.0000689800   -0.0002195100    0.0000521600
   0.0002003700    0.0000591700   -0.0000932100
   0.0000862600    0.0002632500    0.0000347500

37   
 -0.0033749968256213   0.0058456659773597  -0.0073781830899067
  -0.0017546300    0.0030391700   -0.0205036200
  -0.0004125200    0.0000747200   -0.0012977500
   0.0001427200   -0.0012664800    0.0001996100
  -0.0002243400   -0.0007686900    0.0000035400
  -0.0006406000    0.0006667300   -0.0010988600
   0.0001386400   -0.0002172800   -0.0002922400
   0.0002629900    0.0002569900   -0.0007477500
   0.0000474000   -0.0000532000   -0.0002526500
   0.0011128900    0.0007638100   -0.0003561600
  -0.0003963300    0.0007083300    0.0015086700
   0.0015312100   -0.0007551900    0.0005100200
   0.0002821600    0.0007162600    0.0004369700
  -0.0003715600    0.0013488400    0.0004190600
   0.0009345000   -0.0005209000    0.0005357900
   0.0001480700   -0.0002311900    0.0003417700
  -0.0017317900   -0.0006550700    0.0004591200
   0.0000285600   -0.0000242100    0.0002610900
  -0.0004433500   -0.0003498600    0.0004990100
  -0.0014905700    0.0198026700   -0.0099639000
   0.0011669700   -0.0017303500   -0.0002751300
  -0.0073695800    0.0058850300   -0.0009115900
  -0.0062419300   -0.0002507400   -0.0055352600
   0.0008509200   -0.0000485300    0.0000227000
  -0.0004049200   -0.0006817600   -0.0006460500
  -0.0006841400   -0.0008183200   -0.0004536900
   0.0010294200   -0.0001368000   -0.0000840200
  -0.0004429800    0.0006534600   -0.0003099200
   0.0000376600   -0.0000335500    0.0009269900
   0.0000645200   -0.0002616900    0.0002252500
  -0.0006268400    0.0002911900    0.0022834600
   0.0003462300    0.0000881400    0.0016023200
   0.0001225600    0.0000710000    0.0000805700
  -0.0001380100   -0.0000748400    0.0003042400
   0.0000751400   -0.0002063000    0.0002287300
   0.0001213900   -0.0000572500    0.0002266300
  -0.0001444800    0.0002215500    0.0001922300
   0.0250801900   -0.0428035000    0.0557885200
  -0.0019801600    0.0048665400    0.0002676800
  -0.0031156200    0.0050431500    0.0009353500
   0.0018437500    0.0030024800    0.0005238300
  -0.0028049900   -0.0006611800    0.0006265300
  -0.0001463100    0.0002482200    0.0002022600
   0.0007508900    0.0019623000    0.0002086900
  -0.0001262700    0.0002577400    0.0001989900
  -0.0027230400   -0.0001898400    0.0009610000
   0.0001250800   -0.0002232600   -0.0008943500
  -0.0002346600    0.0001403600   -0.0007674900
  -0.0000148300    0.0002235900   -0.0008200000
   0.0000639600   -0.0000416700   -0.0008027200
  -0.0000222700   -0.0000416500   -0.0008072000
  -0.0000238000    0.0000692000   -0.0001734100
   0.0002852600    0.0001152900   -0.0007647600
  -0.0000229700    0.0000692900   -0.0001867500
  -0.0001800200   -0.0001633100   -0.0008231200
   0.0003278100    0.0039528600   -0.0051340000
  -0.0002825900    0.0002735000    0.0000311700
   0.0012094800   -0.0010879500   -0.0022898300
  -0.0020765200   -0.0019639000   -0.0036772400
  -0.0004082000    0.0001297000   -0.0002051500
   0.0000905400   -0.0001076200    0.0001324100
   0.0001985300    0.0000928400    0.0001002000
  -0.0001978400    0.0000675900   -0.0000049100
   0.0003102100   -0.0000322500   -0.0000256600
   0.0003298200   -0.0006119700   -0.0015049500
  -0.0001356900    0.0003812400    0.0000226600
  -0.0027962000    0.0011990300   -0.0059375700
   0.0019038400    0.0003196300   -0.0036973200
  -0.0000211600   -0.0001013200    0.0001773700
   0.0001050800    0.0003542900   -0.0002351300
   0.0000363700    0.0001945700   -0.0000332800
  -0.0001959500   -0.0001188700    0.0001061000
  -0.0000771100   -0.0002607800   -0.0000370900
