mesh: [    16,    16,    16 ]
nqpoint: 576    
reciprocal_lattice:
- [   0.25473699,  -0.14707247,   0.00000000 ] # a*
- [   0.25473699,   0.14707247,   0.00000000 ] # b*
- [   0.00000000,   0.00000000,   0.15536554 ] # c*
natom:   4      
lattice:
- [     1.962808775555995,    -3.399684524805040,     0.000000000000000 ] # a
- [     1.962808775555995,     3.399684524805040,     0.000000000000000 ] # b
- [     0.000000000000000,     0.000000000000000,     6.436433838954212 ] # c
points:
- symbol: Zn # 1
  coordinates: [  0.333333333333336,  0.666666666666664,  0.000051921538097 ]
  mass: 65.380000
- symbol: Zn # 2
  coordinates: [  0.666666666666664,  0.333333333333336,  0.500051921538097 ]
  mass: 65.380000
- symbol: S # 3
  coordinates: [  0.333333333333336,  0.666666666666664,  0.374948078461903 ]
  mass: 32.065000
- symbol: S # 4
  coordinates: [  0.666666666666664,  0.333333333333336,  0.874948078461903 ]
  mass: 32.065000

phonon:
- q-position: [    0.0312500,    0.0312500,    0.0312500 ]
  distance_from_gamma:  0.016644907
  weight: 4    
  band:
  - # 1
    frequency:     0.3972448087
  - # 2
    frequency:     0.4008986835
  - # 3
    frequency:     0.8200852144
  - # 4
    frequency:     2.1396436615
  - # 5
    frequency:     2.1961251739
  - # 6
    frequency:     5.3332699694
  - # 7
    frequency:     6.9351816112
  - # 8
    frequency:     7.1168369862
  - # 9
    frequency:     7.1896068426
  - # 10
    frequency:     7.2382617054
  - # 11
    frequency:     7.2445431841
  - # 12
    frequency:     8.8631872155

- q-position: [    0.0937500,    0.0312500,    0.0312500 ]
  distance_from_gamma:  0.033496074
  weight: 8    
  band:
  - # 1
    frequency:     0.7965079068
  - # 2
    frequency:     0.8717484648
  - # 3
    frequency:     1.5530107020
  - # 4
    frequency:     2.2121857095
  - # 5
    frequency:     2.4306505466
  - # 6
    frequency:     5.2479794334
  - # 7
    frequency:     6.9581276238
  - # 8
    frequency:     7.1709870156
  - # 9
    frequency:     7.2853220695
  - # 10
    frequency:     7.3754612628
  - # 11
    frequency:     7.5430065843
  - # 12
    frequency:     8.8371959448

- q-position: [    0.1562500,    0.0312500,    0.0312500 ]
  distance_from_gamma:  0.051408834
  weight: 8    
  band:
  - # 1
    frequency:     1.1829287604
  - # 2
    frequency:     1.3472542952
  - # 3
    frequency:     2.2444497604
  - # 4
    frequency:     2.3848941660
  - # 5
    frequency:     2.7840766358
  - # 6
    frequency:     5.1317004740
  - # 7
    frequency:     7.0123124647
  - # 8
    frequency:     7.2408502722
  - # 9
    frequency:     7.4039948876
  - # 10
    frequency:     7.5797666938
  - # 11
    frequency:     7.9886363060
  - # 12
    frequency:     8.7957366579

- q-position: [    0.2187500,    0.0312500,    0.0312500 ]
  distance_from_gamma:  0.069567929
  weight: 8    
  band:
  - # 1
    frequency:     1.5250695638
  - # 2
    frequency:     1.7876234067
  - # 3
    frequency:     2.4263521468
  - # 4
    frequency:     2.9352806495
  - # 5
    frequency:     3.2425494656
  - # 6
    frequency:     5.0495833132
  - # 7
    frequency:     7.0960297234
  - # 8
    frequency:     7.2988308170
  - # 9
    frequency:     7.5294460466
  - # 10
    frequency:     7.8062877893
  - # 11
    frequency:     8.4325680738
  - # 12
    frequency:     8.7545138231

- q-position: [    0.2812500,    0.0312500,    0.0312500 ]
  distance_from_gamma:  0.087820684
  weight: 8    
  band:
  - # 1
    frequency:     1.8017885870
  - # 2
    frequency:     2.1690929296
  - # 3
    frequency:     2.5460972721
  - # 4
    frequency:     3.2009113706
  - # 5
    frequency:     3.8512813509
  - # 6
    frequency:     5.0727152561
  - # 7
    frequency:     7.2063421881
  - # 8
    frequency:     7.3225953122
  - # 9
    frequency:     7.6464679477
  - # 10
    frequency:     8.0027191268
  - # 11
    frequency:     8.6567358565
  - # 12
    frequency:     8.8512224683

- q-position: [    0.3437500,    0.0312500,    0.0312500 ]
  distance_from_gamma:  0.106118780
  weight: 8    
  band:
  - # 1
    frequency:     1.9943294543
  - # 2
    frequency:     2.4758287730
  - # 3
    frequency:     2.6478430832
  - # 4
    frequency:     3.2532762451
  - # 5
    frequency:     4.4165220992
  - # 6
    frequency:     5.1937335403
  - # 7
    frequency:     7.3054332315
  - # 8
    frequency:     7.3398758919
  - # 9
    frequency:     7.7425741263
  - # 10
    frequency:     8.1265440600
  - # 11
    frequency:     8.6693345295
  - # 12
    frequency:     9.0562557332

- q-position: [    0.4062500,    0.0312500,    0.0312500 ]
  distance_from_gamma:  0.124442218
  weight: 8    
  band:
  - # 1
    frequency:     2.0993161022
  - # 2
    frequency:     2.6995809759
  - # 3
    frequency:     2.7273809818
  - # 4
    frequency:     3.2029433695
  - # 5
    frequency:     4.8531259829
  - # 6
    frequency:     5.3039094816
  - # 7
    frequency:     7.2808315152
  - # 8
    frequency:     7.4585617962
  - # 9
    frequency:     7.8079456843
  - # 10
    frequency:     8.1627190202
  - # 11
    frequency:     8.7186185402
  - # 12
    frequency:     9.1414834814

- q-position: [    0.4687500,    0.0312500,    0.0312500 ]
  distance_from_gamma:  0.142781242
  weight: 8    
  band:
  - # 1
    frequency:     2.1365916323
  - # 2
    frequency:     2.7672514092
  - # 3
    frequency:     2.8197307712
  - # 4
    frequency:     3.1448103406
  - # 5
    frequency:     5.0954987650
  - # 6
    frequency:     5.3226948772
  - # 7
    frequency:     7.2628566620
  - # 8
    frequency:     7.5282993996
  - # 9
    frequency:     7.8368501670
  - # 10
    frequency:     8.1562640185
  - # 11
    frequency:     8.7701201966
  - # 12
    frequency:     9.1490834192

- q-position: [   -0.4687500,    0.0312500,    0.0312500 ]
  distance_from_gamma:  0.133610183
  weight: 8    
  band:
  - # 1
    frequency:     2.1248063316
  - # 2
    frequency:     2.7532875613
  - # 3
    frequency:     2.7762162027
  - # 4
    frequency:     3.1686232896
  - # 5
    frequency:     5.0053995547
  - # 6
    frequency:     5.3239813406
  - # 7
    frequency:     7.2693250484
  - # 8
    frequency:     7.5033686531
  - # 9
    frequency:     7.8271622478
  - # 10
    frequency:     8.1604225688
  - # 11
    frequency:     8.7497140030
  - # 12
    frequency:     9.1496588109

- q-position: [   -0.4062500,    0.0312500,    0.0312500 ]
  distance_from_gamma:  0.115278086
  weight: 8    
  band:
  - # 1
    frequency:     2.0569251658
  - # 2
    frequency:     2.5985961116
  - # 3
    frequency:     2.6911747979
  - # 4
    frequency:     3.2348474933
  - # 5
    frequency:     4.6541755534
  - # 6
    frequency:     5.2577352432
  - # 7
    frequency:     7.2946448459
  - # 8
    frequency:     7.4011773343
  - # 9
    frequency:     7.7795556076
  - # 10
    frequency:     8.1541501793
  - # 11
    frequency:     8.6889300081
  - # 12
    frequency:     9.1131794882

- q-position: [   -0.3437500,    0.0312500,    0.0312500 ]
  distance_from_gamma:  0.096965667
  weight: 8    
  band:
  - # 1
    frequency:     1.9093821333
  - # 2
    frequency:     2.3324171840
  - # 3
    frequency:     2.5992217547
  - # 4
    frequency:     3.2463390449
  - # 5
    frequency:     4.1465261254
  - # 6
    frequency:     5.1265358915
  - # 7
    frequency:     7.2680719803
  - # 8
    frequency:     7.3214327152
  - # 9
    frequency:     7.6978398099
  - # 10
    frequency:     8.0757977733
  - # 11
    frequency:     8.6617741341
  - # 12
    frequency:     8.9669590454

- q-position: [   -0.2812500,    0.0312500,    0.0312500 ]
  distance_from_gamma:  0.078686665
  weight: 8    
  band:
  - # 1
    frequency:     1.6729128582
  - # 2
    frequency:     1.9869361776
  - # 3
    frequency:     2.4885308376
  - # 4
    frequency:     3.1034701127
  - # 5
    frequency:     3.5418398043
  - # 6
    frequency:     5.0454162642
  - # 7
    frequency:     7.1482529423
  - # 8
    frequency:     7.3155780632
  - # 9
    frequency:     7.5898253463
  - # 10
    frequency:     7.9111869220
  - # 11
    frequency:     8.5993648121
  - # 12
    frequency:     8.7611905438

- q-position: [   -0.2187500,    0.0312500,    0.0312500 ]
  distance_from_gamma:  0.060471391
  weight: 8    
  band:
  - # 1
    frequency:     1.3608757588
  - # 2
    frequency:     1.5734542542
  - # 3
    frequency:     2.3576335704
  - # 4
    frequency:     2.6745046628
  - # 5
    frequency:     2.9916953833
  - # 6
    frequency:     5.0813710135
  - # 7
    frequency:     7.0505765204
  - # 8
    frequency:     7.2731168060
  - # 9
    frequency:     7.4669382161
  - # 10
    frequency:     7.6937136058
  - # 11
    frequency:     8.2191886908
  - # 12
    frequency:     8.7729845130

- q-position: [   -0.1562500,    0.0312500,    0.0312500 ]
  distance_from_gamma:  0.042402054
  weight: 8    
  band:
  - # 1
    frequency:     0.9938189992
  - # 2
    frequency:     1.1122068209
  - # 3
    frequency:     1.9288111575
  - # 4
    frequency:     2.2702497075
  - # 5
    frequency:     2.5970441192
  - # 6
    frequency:     5.1902980251
  - # 7
    frequency:     6.9814377763
  - # 8
    frequency:     7.2055458407
  - # 9
    frequency:     7.3425931810
  - # 10
    frequency:     7.4713234388
  - # 11
    frequency:     7.7577243700
  - # 12
    frequency:     8.8178479217

- q-position: [   -0.0937500,    0.0312500,    0.0312500 ]
  distance_from_gamma:  0.024799728
  weight: 8    
  band:
  - # 1
    frequency:     0.5954722288
  - # 2
    frequency:     0.6301553553
  - # 3
    frequency:     1.1752455315
  - # 4
    frequency:     2.1690497910
  - # 5
    frequency:     2.2938046520
  - # 6
    frequency:     5.2974227760
  - # 7
    frequency:     6.9426623212
  - # 8
    frequency:     7.1404478613
  - # 9
    frequency:     7.2353801717
  - # 10
    frequency:     7.2983867283
  - # 11
    frequency:     7.3619921285
  - # 12
    frequency:     8.8525631207

- q-position: [   -0.0312500,    0.0312500,    0.0312500 ]
  distance_from_gamma:  0.010395485
  weight: 4    
  band:
  - # 1
    frequency:     0.2172654004
  - # 2
    frequency:     0.2504042904
  - # 3
    frequency:     0.5504811798
  - # 4
    frequency:     2.1250749921
  - # 5
    frequency:     2.1448567587
  - # 6
    frequency:     5.3520440697
  - # 7
    frequency:     6.9339519910
  - # 8
    frequency:     7.1043696338
  - # 9
    frequency:     7.1361129406
  - # 10
    frequency:     7.2038012626
  - # 11
    frequency:     7.2130175885
  - # 12
    frequency:     8.8686085044

- q-position: [    0.0937500,    0.0937500,    0.0312500 ]
  distance_from_gamma:  0.048009318
  weight: 4    
  band:
  - # 1
    frequency:     1.1698425812
  - # 2
    frequency:     1.2575936675
  - # 3
    frequency:     2.0627037588
  - # 4
    frequency:     2.4044987582
  - # 5
    frequency:     2.6749261294
  - # 6
    frequency:     5.1526939236
  - # 7
    frequency:     6.9992057658
  - # 8
    frequency:     7.2688281056
  - # 9
    frequency:     7.3587148316
  - # 10
    frequency:     7.5377945893
  - # 11
    frequency:     7.8868046172
  - # 12
    frequency:     8.8036439569

- q-position: [    0.1562500,    0.0937500,    0.0312500 ]
  distance_from_gamma:  0.064527122
  weight: 8    
  band:
  - # 1
    frequency:     1.5332976409
  - # 2
    frequency:     1.6697836689
  - # 3
    frequency:     2.3511599418
  - # 4
    frequency:     2.8611525834
  - # 5
    frequency:     3.0025760548
  - # 6
    frequency:     5.0601409717
  - # 7
    frequency:     7.0691396526
  - # 8
    frequency:     7.3590094183
  - # 9
    frequency:     7.4933545829
  - # 10
    frequency:     7.7221483068
  - # 11
    frequency:     8.2880855459
  - # 12
    frequency:     8.7586818466

- q-position: [    0.2187500,    0.0937500,    0.0312500 ]
  distance_from_gamma:  0.081844680
  weight: 8    
  band:
  - # 1
    frequency:     1.8364254081
  - # 2
    frequency:     2.0542408092
  - # 3
    frequency:     2.5155299790
  - # 4
    frequency:     3.1396696266
  - # 5
    frequency:     3.5597943219
  - # 6
    frequency:     5.0356933272
  - # 7
    frequency:     7.1670055124
  - # 8
    frequency:     7.4135991404
  - # 9
    frequency:     7.6331437650
  - # 10
    frequency:     7.9102244102
  - # 11
    frequency:     8.6206026716
  - # 12
    frequency:     8.7394540429

- q-position: [    0.2812500,    0.0937500,    0.0312500 ]
  distance_from_gamma:  0.099545472
  weight: 8    
  band:
  - # 1
    frequency:     2.0660069414
  - # 2
    frequency:     2.3811892301
  - # 3
    frequency:     2.6402067929
  - # 4
    frequency:     3.2379556862
  - # 5
    frequency:     4.1299072068
  - # 6
    frequency:     5.1091545750
  - # 7
    frequency:     7.2853266099
  - # 8
    frequency:     7.4291531801
  - # 9
    frequency:     7.7436946655
  - # 10
    frequency:     8.0680629511
  - # 11
    frequency:     8.6487948051
  - # 12
    frequency:     8.9338926507

- q-position: [    0.3437500,    0.0937500,    0.0312500 ]
  distance_from_gamma:  0.117456364
  weight: 8    
  band:
  - # 1
    frequency:     2.2130877036
  - # 2
    frequency:     2.6347114134
  - # 3
    frequency:     2.7356722992
  - # 4
    frequency:     3.2237267571
  - # 5
    frequency:     4.6085045317
  - # 6
    frequency:     5.2181064356
  - # 7
    frequency:     7.3745808900
  - # 8
    frequency:     7.4515719247
  - # 9
    frequency:     7.8163907137
  - # 10
    frequency:     8.1555211422
  - # 11
    frequency:     8.6566127581
  - # 12
    frequency:     9.0653371611

- q-position: [    0.4062500,    0.0937500,    0.0312500 ]
  distance_from_gamma:  0.135494064
  weight: 8    
  band:
  - # 1
    frequency:     2.2836890312
  - # 2
    frequency:     2.7926350240
  - # 3
    frequency:     2.8075205860
  - # 4
    frequency:     3.1666342172
  - # 5
    frequency:     4.9442950707
  - # 6
    frequency:     5.2655611414
  - # 7
    frequency:     7.3670461031
  - # 8
    frequency:     7.5403321655
  - # 9
    frequency:     7.8526242587
  - # 10
    frequency:     8.1681535349
  - # 11
    frequency:     8.7027215398
  - # 12
    frequency:     9.1004234418

- q-position: [   -0.5312500,    0.0937500,    0.0312500 ]
  distance_from_gamma:  0.144545645
  weight: 8    
  band:
  - # 1
    frequency:     2.2963363563
  - # 2
    frequency:     2.8089239252
  - # 3
    frequency:     2.8455486419
  - # 4
    frequency:     3.1462159038
  - # 5
    frequency:     5.0318555687
  - # 6
    frequency:     5.2596551097
  - # 7
    frequency:     7.3619442369
  - # 8
    frequency:     7.5652971277
  - # 9
    frequency:     7.8590697266
  - # 10
    frequency:     8.1647555751
  - # 11
    frequency:     8.7194113725
  - # 12
    frequency:     9.1011315286

- q-position: [   -0.4687500,    0.0937500,    0.0312500 ]
  distance_from_gamma:  0.126462746
  weight: 8    
  band:
  - # 1
    frequency:     2.2568033285
  - # 2
    frequency:     2.7302349490
  - # 3
    frequency:     2.7721457022
  - # 4
    frequency:     3.1961027356
  - # 5
    frequency:     4.7979622230
  - # 6
    frequency:     5.2535976228
  - # 7
    frequency:     7.3744794583
  - # 8
    frequency:     7.4975096551
  - # 9
    frequency:     7.8387452486
  - # 10
    frequency:     8.1682721508
  - # 11
    frequency:     8.6779929520
  - # 12
    frequency:     9.0916411617

- q-position: [   -0.4062500,    0.0937500,    0.0312500 ]
  distance_from_gamma:  0.108481131
  weight: 8    
  band:
  - # 1
    frequency:     2.1499863437
  - # 2
    frequency:     2.5177819671
  - # 3
    frequency:     2.6914456285
  - # 4
    frequency:     3.2406479149
  - # 5
    frequency:     4.3838070146
  - # 6
    frequency:     5.1658577372
  - # 7
    frequency:     7.3424848662
  - # 8
    frequency:     7.4307065721
  - # 9
    frequency:     7.7848433156
  - # 10
    frequency:     8.1225959788
  - # 11
    frequency:     8.6465631545
  - # 12
    frequency:     9.0140330160

- q-position: [   -0.3437500,    0.0937500,    0.0312500 ]
  distance_from_gamma:  0.090661088
  weight: 8    
  band:
  - # 1
    frequency:     1.9611294183
  - # 2
    frequency:     2.2261472888
  - # 3
    frequency:     2.5818570952
  - # 4
    frequency:     3.2066625984
  - # 5
    frequency:     3.8528187611
  - # 6
    frequency:     5.0619401579
  - # 7
    frequency:     7.2246442465
  - # 8
    frequency:     7.4256202591
  - # 9
    frequency:     7.6929373585
  - # 10
    frequency:     7.9954892477
  - # 11
    frequency:     8.6555486560
  - # 12
    frequency:     8.8279593838

- q-position: [   -0.2812500,    0.0937500,    0.0312500 ]
  distance_from_gamma:  0.073120839
  weight: 8    
  band:
  - # 1
    frequency:     1.6933504248
  - # 2
    frequency:     1.8677430037
  - # 3
    frequency:     2.4397679849
  - # 4
    frequency:     3.0318415408
  - # 5
    frequency:     3.2632202321
  - # 6
    frequency:     5.0357201227
  - # 7
    frequency:     7.1148004092
  - # 8
    frequency:     7.3912987811
  - # 9
    frequency:     7.5657007947
  - # 10
    frequency:     7.8175365026
  - # 11
    frequency:     8.4751001178
  - # 12
    frequency:     8.7378885081

- q-position: [   -0.2187500,    0.0937500,    0.0312500 ]
  distance_from_gamma:  0.056123334
  weight: 8    
  band:
  - # 1
    frequency:     1.3578067299
  - # 2
    frequency:     1.4645414660
  - # 3
    frequency:     2.2373388830
  - # 4
    frequency:     2.6150852254
  - # 5
    frequency:     2.8234360492
  - # 6
    frequency:     5.1020531253
  - # 7
    frequency:     7.0305414740
  - # 8
    frequency:     7.3178667226
  - # 9
    frequency:     7.4214219788
  - # 10
    frequency:     7.6279719717
  - # 11
    frequency:     8.0872756486
  - # 12
    frequency:     8.7818636321

- q-position: [   -0.1562500,    0.0937500,    0.0312500 ]
  distance_from_gamma:  0.040360220
  weight: 8    
  band:
  - # 1
    frequency:     0.9769258404
  - # 2
    frequency:     1.0564499927
  - # 3
    frequency:     1.8163453148
  - # 4
    frequency:     2.2806121447
  - # 5
    frequency:     2.5426542419
  - # 6
    frequency:     5.2036677394
  - # 7
    frequency:     6.9751375361
  - # 8
    frequency:     7.2160668688
  - # 9
    frequency:     7.3131381858
  - # 10
    frequency:     7.4532604591
  - # 11
    frequency:     7.7005385751
  - # 12
    frequency:     8.8224087813

- q-position: [   -0.0937500,    0.0937500,    0.0312500 ]
  distance_from_gamma:  0.028000238
  weight: 4    
  band:
  - # 1
    frequency:     0.6596642463
  - # 2
    frequency:     0.7206379775
  - # 3
    frequency:     1.3216633556
  - # 4
    frequency:     2.1785539898
  - # 5
    frequency:     2.3445489155
  - # 6
    frequency:     5.2803790200
  - # 7
    frequency:     6.9476004648
  - # 8
    frequency:     7.1450099571
  - # 9
    frequency:     7.2677254708
  - # 10
    frequency:     7.3120812138
  - # 11
    frequency:     7.4278331320
  - # 12
    frequency:     8.8473776481

- q-position: [    0.1562500,    0.1562500,    0.0312500 ]
  distance_from_gamma:  0.079753232
  weight: 4    
  band:
  - # 1
    frequency:     1.8913984130
  - # 2
    frequency:     2.0102682049
  - # 3
    frequency:     2.4938487558
  - # 4
    frequency:     3.1329399136
  - # 5
    frequency:     3.4108744662
  - # 6
    frequency:     5.0238294932
  - # 7
    frequency:     7.1541067730
  - # 8
    frequency:     7.4892528113
  - # 9
    frequency:     7.6248072135
  - # 10
    frequency:     7.8572346679
  - # 11
    frequency:     8.5776782760
  - # 12
    frequency:     8.7114091121

- q-position: [    0.2187500,    0.1562500,    0.0312500 ]
  distance_from_gamma:  0.096090342
  weight: 8    
  band:
  - # 1
    frequency:     2.1796045489
  - # 2
    frequency:     2.3273294768
  - # 3
    frequency:     2.6446888930
  - # 4
    frequency:     3.2203132819
  - # 5
    frequency:     3.9036847098
  - # 6
    frequency:     5.0537945380
  - # 7
    frequency:     7.2642645724
  - # 8
    frequency:     7.5633957179
  - # 9
    frequency:     7.7679099781
  - # 10
    frequency:     7.9857846666
  - # 11
    frequency:     8.6555752133
  - # 12
    frequency:     8.8093236636

- q-position: [    0.2812500,    0.1562500,    0.0312500 ]
  distance_from_gamma:  0.113057847
  weight: 8    
  band:
  - # 1
    frequency:     2.3842006184
  - # 2
    frequency:     2.5921475372
  - # 3
    frequency:     2.7722863454
  - # 4
    frequency:     3.2240170369
  - # 5
    frequency:     4.3512236457
  - # 6
    frequency:     5.1243280138
  - # 7
    frequency:     7.3861889510
  - # 8
    frequency:     7.5894850855
  - # 9
    frequency:     7.8542189110
  - # 10
    frequency:     8.1108228668
  - # 11
    frequency:     8.6126412417
  - # 12
    frequency:     8.9499597209

- q-position: [    0.3437500,    0.1562500,    0.0312500 ]
  distance_from_gamma:  0.130409919
  weight: 8    
  band:
  - # 1
    frequency:     2.5081855185
  - # 2
    frequency:     2.7853512386
  - # 3
    frequency:     2.8618542602
  - # 4
    frequency:     3.1843911630
  - # 5
    frequency:     4.7115388398
  - # 6
    frequency:     5.1682033184
  - # 7
    frequency:     7.4760200514
  - # 8
    frequency:     7.6188505125
  - # 9
    frequency:     7.8768435482
  - # 10
    frequency:     8.1861727230
  - # 11
    frequency:     8.6060569942
  - # 12
    frequency:     9.0080179892

- q-position: [    0.4062500,    0.1562500,    0.0312500 ]
  distance_from_gamma:  0.148011366
  weight: 8    
  band:
  - # 1
    frequency:     2.5586236892
  - # 2
    frequency:     2.8879822837
  - # 3
    frequency:     2.8993703589
  - # 4
    frequency:     3.1474231811
  - # 5
    frequency:     4.9235144920
  - # 6
    frequency:     5.1492701445
  - # 7
    frequency:     7.4959950754
  - # 8
    frequency:     7.6719425518
  - # 9
    frequency:     7.8668225420
  - # 10
    frequency:     8.2002877936
  - # 11
    frequency:     8.6250694610
  - # 12
    frequency:     9.0178038478

- q-position: [   -0.5312500,    0.1562500,    0.0312500 ]
  distance_from_gamma:  0.139185352
  weight: 8    
  band:
  - # 1
    frequency:     2.5420443934
  - # 2
    frequency:     2.8496729404
  - # 3
    frequency:     2.8885370217
  - # 4
    frequency:     3.1621720830
  - # 5
    frequency:     4.8429104257
  - # 6
    frequency:     5.1641507966
  - # 7
    frequency:     7.4917318289
  - # 8
    frequency:     7.6486956533
  - # 9
    frequency:     7.8728967103
  - # 10
    frequency:     8.1977298180
  - # 11
    frequency:     8.6162944927
  - # 12
    frequency:     9.0159929094

- q-position: [   -0.4687500,    0.1562500,    0.0312500 ]
  distance_from_gamma:  0.121696008
  weight: 8    
  band:
  - # 1
    frequency:     2.4559325154
  - # 2
    frequency:     2.6986738775
  - # 3
    frequency:     2.8224745360
  - # 4
    frequency:     3.2068927973
  - # 5
    frequency:     4.5450735845
  - # 6
    frequency:     5.1537399325
  - # 7
    frequency:     7.4398028704
  - # 8
    frequency:     7.5990922962
  - # 9
    frequency:     7.8719829223
  - # 10
    frequency:     8.1578618186
  - # 11
    frequency:     8.6034623759
  - # 12
    frequency:     8.9878000451

- q-position: [   -0.4062500,    0.1562500,    0.0312500 ]
  distance_from_gamma:  0.104514218
  weight: 8    
  band:
  - # 1
    frequency:     2.2922440711
  - # 2
    frequency:     2.4676807141
  - # 3
    frequency:     2.7125907604
  - # 4
    frequency:     3.2303398416
  - # 5
    frequency:     4.1357005055
  - # 6
    frequency:     5.0878869760
  - # 7
    frequency:     7.3253781285
  - # 8
    frequency:     7.5801970045
  - # 9
    frequency:     7.8202129423
  - # 10
    frequency:     8.0506681665
  - # 11
    frequency:     8.6315040729
  - # 12
    frequency:     8.8909176899

- q-position: [   -0.3437500,    0.1562500,    0.0312500 ]
  distance_from_gamma:  0.087820684
  weight: 8    
  band:
  - # 1
    frequency:     2.0459310004
  - # 2
    frequency:     2.1737330801
  - # 3
    frequency:     2.5706472372
  - # 4
    frequency:     3.1890331296
  - # 5
    frequency:     3.6602042633
  - # 6
    frequency:     5.0305979327
  - # 7
    frequency:     7.2065116669
  - # 8
    frequency:     7.5341129388
  - # 9
    frequency:     7.6998156581
  - # 10
    frequency:     7.9213369907
  - # 11
    frequency:     8.6765823430
  - # 12
    frequency:     8.7104535515

- q-position: [   -0.2812500,    0.1562500,    0.0312500 ]
  distance_from_gamma:  0.071956031
  weight: 8    
  band:
  - # 1
    frequency:     1.7183244002
  - # 2
    frequency:     1.8408285550
  - # 3
    frequency:     2.4189440010
  - # 4
    frequency:     3.0433711187
  - # 5
    frequency:     3.1693083210
  - # 6
    frequency:     5.0346638168
  - # 7
    frequency:     7.1081364714
  - # 8
    frequency:     7.4286347073
  - # 9
    frequency:     7.5539809136
  - # 10
    frequency:     7.7912490100
  - # 11
    frequency:     8.4381378049
  - # 12
    frequency:     8.7358546057

- q-position: [   -0.2187500,    0.1562500,    0.0312500 ]
  distance_from_gamma:  0.057609161
  weight: 8    
  band:
  - # 1
    frequency:     1.3486087588
  - # 2
    frequency:     1.5027313198
  - # 3
    frequency:     2.2947813518
  - # 4
    frequency:     2.6173552402
  - # 5
    frequency:     2.8907960374
  - # 6
    frequency:     5.0946538444
  - # 7
    frequency:     7.0372634460
  - # 8
    frequency:     7.2926674583
  - # 9
    frequency:     7.4434659387
  - # 10
    frequency:     7.6506542167
  - # 11
    frequency:     8.1352812322
  - # 12
    frequency:     8.7788457138

- q-position: [   -0.1562500,    0.1562500,    0.0312500 ]
  distance_from_gamma:  0.046215883
  weight: 4    
  band:
  - # 1
    frequency:     1.0592398736
  - # 2
    frequency:     1.2131726565
  - # 3
    frequency:     2.1090520468
  - # 4
    frequency:     2.2757429747
  - # 5
    frequency:     2.6831555367
  - # 6
    frequency:     5.1652060319
  - # 7
    frequency:     6.9938327918
  - # 8
    frequency:     7.2110781990
  - # 9
    frequency:     7.3727784321
  - # 10
    frequency:     7.5160226659
  - # 11
    frequency:     7.8586462420
  - # 12
    frequency:     8.8088665726

- q-position: [    0.2187500,    0.2187500,    0.0312500 ]
  distance_from_gamma:  0.111553140
  weight: 4    
  band:
  - # 1
    frequency:     2.4730181854
  - # 2
    frequency:     2.5753950203
  - # 3
    frequency:     2.7938275238
  - # 4
    frequency:     3.2232335797
  - # 5
    frequency:     4.2295021295
  - # 6
    frequency:     5.0843189103
  - # 7
    frequency:     7.3817260068
  - # 8
    frequency:     7.6705311534
  - # 9
    frequency:     7.9173057351
  - # 10
    frequency:     8.0375357057
  - # 11
    frequency:     8.6095046781
  - # 12
    frequency:     8.8844671039

- q-position: [    0.2812500,    0.2187500,    0.0312500 ]
  distance_from_gamma:  0.127792017
  weight: 8    
  band:
  - # 1
    frequency:     2.6831582194
  - # 2
    frequency:     2.7763843222
  - # 3
    frequency:     2.9314024735
  - # 4
    frequency:     3.1891382435
  - # 5
    frequency:     4.5186119986
  - # 6
    frequency:     5.0898290655
  - # 7
    frequency:     7.5005341306
  - # 8
    frequency:     7.7242537704
  - # 9
    frequency:     7.9738255746
  - # 10
    frequency:     8.1333754109
  - # 11
    frequency:     8.5526146218
  - # 12
    frequency:     8.9170280121

- q-position: [    0.3437500,    0.2187500,    0.0312500 ]
  distance_from_gamma:  0.144545645
  weight: 8    
  band:
  - # 1
    frequency:     2.8065026596
  - # 2
    frequency:     2.9133002282
  - # 3
    frequency:     3.0081391783
  - # 4
    frequency:     3.1538973771
  - # 5
    frequency:     4.7449394675
  - # 6
    frequency:     5.0466204366
  - # 7
    frequency:     7.5784861166
  - # 8
    frequency:     7.7839595924
  - # 9
    frequency:     7.9242018862
  - # 10
    frequency:     8.2323586091
  - # 11
    frequency:     8.5100888067
  - # 12
    frequency:     8.9243221323

- q-position: [   -0.5937500,    0.2187500,    0.0312500 ]
  distance_from_gamma:  0.153062881
  weight: 8    
  band:
  - # 1
    frequency:     2.8325254008
  - # 2
    frequency:     2.9549738130
  - # 3
    frequency:     3.0078269593
  - # 4
    frequency:     3.1485565550
  - # 5
    frequency:     4.8120521713
  - # 6
    frequency:     5.0179300762
  - # 7
    frequency:     7.5923049914
  - # 8
    frequency:     7.8237926425
  - # 9
    frequency:     7.8862631578
  - # 10
    frequency:     8.2537712326
  - # 11
    frequency:     8.5011935201
  - # 12
    frequency:     8.9244989307

- q-position: [   -0.5312500,    0.2187500,    0.0312500 ]
  distance_from_gamma:  0.136116230
  weight: 8    
  band:
  - # 1
    frequency:     2.7560159906
  - # 2
    frequency:     2.8530706163
  - # 3
    frequency:     2.9816484438
  - # 4
    frequency:     3.1687951581
  - # 5
    frequency:     4.6423058547
  - # 6
    frequency:     5.0742351969
  - # 7
    frequency:     7.5477480095
  - # 8
    frequency:     7.7496240745
  - # 9
    frequency:     7.9561774593
  - # 10
    frequency:     8.1905259780
  - # 11
    frequency:     8.5278549703
  - # 12
    frequency:     8.9225737622

- q-position: [   -0.4687500,    0.2187500,    0.0312500 ]
  distance_from_gamma:  0.119594975
  weight: 8    
  band:
  - # 1
    frequency:     2.5889184582
  - # 2
    frequency:     2.6831960302
  - # 3
    frequency:     2.8665064477
  - # 4
    frequency:     3.2087389898
  - # 5
    frequency:     4.3798221016
  - # 6
    frequency:     5.0923789810
  - # 7
    frequency:     7.4429898956
  - # 8
    frequency:     7.7009583663
  - # 9
    frequency:     7.9660698730
  - # 10
    frequency:     8.0750783677
  - # 11
    frequency:     8.5809703902
  - # 12
    frequency:     8.9051708575

- q-position: [   -0.4062500,    0.2187500,    0.0312500 ]
  distance_from_gamma:  0.103702628