 vasp.6.4.3 19Mar24 (build Jul  1 2025 23:09:51) complex                         
 executed on             LinuxGNU date 2026.01.02  22:45:46
 running   14 mpi-ranks, with   14 threads/rank, on    1 nodes
 distrk:  each k-point on   14 cores,    1 groups
 distr:  one band on NCORE=   1 cores,   14 groups


--------------------------------------------------------------------------------------------------------


 INCAR:
   ENCUT = 520.000000
   KSPACING = 0.300000
   SIGMA = 0.030000
   EDIFF = 1.00e-06
   EDIFFG = -1.00e-02
   GGA = PE
   PREC = Accurate
   IBRION = 1
   ISIF = 3
   ISMEAR = 0
   NELM = 120
   NSW = 200

 POTCAR:    PAW_PBE Si 05Jan2001                  
 POTCAR:    PAW_PBE O 08Apr2002                   
 POTCAR:    PAW_PBE Si 05Jan2001                  
   SHA256 =  79d9987ad8750f624c4d6acb2a16d13abf6a777132adc04dc6c8399be72b42bb Si/POTCAR             
   COPYR  = (c) Copyright 05Jan2001 Georg Kresse                                                    
   COPYR  = This file is part of the software VASP. Any use, copying, and all other rights are regul
   COPYR  = If you do not have a valid VASP license, you may not use, copy or distribute this file. 
   VRHFIN =Si: s2p2                                                                                 
   LEXCH  = PE                                                                                      
   EATOM  =   103.0669 eV,    7.5752 Ry                                                             
                                                                                                    
   TITEL  = PAW_PBE Si 05Jan2001                                                                    
   LULTRA =        F    use ultrasoft PP ?                                                          
   IUNSCR =        1    unscreen: 0-lin 1-nonlin 2-no                                               
   RPACOR =    1.500    partial core radius                                                         
   POMASS =   28.085; ZVAL   =    4.000    mass and valenz                                          
   RCORE  =    1.900    outmost cutoff radius                                                       
   RWIGS  =    2.480; RWIGS  =    1.312    wigner-seitz radius (au A)                               
   ENMAX  =  245.345; ENMIN  =  184.009 eV                                                          
   ICORE  =        2    local potential                                                             
   LCOR   =        T    correct aug charges                                                         
   LPAW   =        T    paw PP                                                                      
   EAUG   =  322.069                                                                                
   DEXC   =    0.000                                                                                
   RMAX   =    1.950    core radius for proj-oper                                                   
   RAUG   =    1.300    factor for augmentation sphere                                              
   RDEP   =    1.993    radius for radial grids                                                     
   RDEPT  =    1.837    core radius for aug-charge                                                  
                                                                                                    
   Atomic configuration                                                                             
    6 entries                                                                                       
     n  l   j            E        occ.                                                              
     1  0  0.50     -1785.8828   2.0000                                                             
     2  0  0.50      -139.4969   2.0000                                                             
     2  1  1.50       -95.5546   6.0000                                                             
     3  0  0.50       -10.8127   2.0000                                                             
     3  1  0.50        -4.0811   2.0000                                                             
     3  2  1.50        -4.0817   0.0000                                                             
   Description                                                                                      
     l       E           TYP  RCUT    TYP  RCUT                                                     
     0    -10.8127223     23  1.900                                                                 
     0     -7.6451159     23  1.900                                                                 
     1     -4.0811372     23  1.900                                                                 
     1      2.4879257     23  1.900                                                                 
     2     -4.0817478      7  1.900                                                                 
  local pseudopotential read in
  partial core-charges read in
  partial kinetic energy density read in
  atomic valenz-charges read in
  non local Contribution for L=           0  read in
    real space projection operators read in
  non local Contribution for L=           0  read in
    real space projection operators read in
  non local Contribution for L=           1  read in
    real space projection operators read in
  non local Contribution for L=           1  read in
    real space projection operators read in
    PAW grid and wavefunctions read in

   number of l-projection  operators is LMAX  =           4
   number of lm-projection operators is LMMAX =           8

 POTCAR:    PAW_PBE O 08Apr2002                   
   SHA256 =  818f92134a0a090dccd8ba1447fa70422a3b330e708bb4f08108d8ae51209ddf O/POTCAR              
   COPYR  = (c) Copyright 08Apr2002 Georg Kresse                                                    
   COPYR  = This file is part of the software VASP. Any use, copying, and all other rights are regul
   COPYR  = If you do not have a valid VASP license, you may not use, copy or distribute this file. 
   VRHFIN =O: s2p4                                                                                  
   LEXCH  = PE                                                                                      
   EATOM  =   432.3788 eV,   31.7789 Ry                                                             
                                                                                                    
   TITEL  = PAW_PBE O 08Apr2002                                                                     
   LULTRA =        F    use ultrasoft PP ?                                                          
   IUNSCR =        1    unscreen: 0-lin 1-nonlin 2-no                                               
   RPACOR =    1.200    partial core radius                                                         
   POMASS =   16.000; ZVAL   =    6.000    mass and valenz                                          
   RCORE  =    1.520    outmost cutoff radius                                                       
   RWIGS  =    1.550; RWIGS  =    0.820    wigner-seitz radius (au A)                               
   ENMAX  =  400.000; ENMIN  =  300.000 eV                                                          
   ICORE  =        2    local potential                                                             
   LCOR   =        T    correct aug charges                                                         
   LPAW   =        T    paw PP                                                                      
   EAUG   =  605.392                                                                                
   DEXC   =    0.000                                                                                
   RMAX   =    1.553    core radius for proj-oper                                                   
   RAUG   =    1.300    factor for augmentation sphere                                              
   RDEP   =    1.550    radius for radial grids                                                     
   RDEPT  =    1.329    core radius for aug-charge                                                  
                                                                                                    
   Atomic configuration                                                                             
    4 entries                                                                                       
     n  l   j            E        occ.                                                              
     1  0  0.50      -514.6923   2.0000                                                             
     2  0  0.50       -23.9615   2.0000                                                             
     2  1  0.50        -9.0305   4.0000                                                             
     3  2  1.50        -9.5241   0.0000                                                             
   Description                                                                                      
     l       E           TYP  RCUT    TYP  RCUT                                                     
     0    -23.9615318     23  1.200                                                                 
     0     -9.5240782     23  1.200                                                                 
     1     -9.0304911     23  1.520                                                                 
     1      8.1634956     23  1.520                                                                 
     2     -9.5240782      7  1.500                                                                 
  local pseudopotential read in
  partial core-charges read in
  partial kinetic energy density read in
  kinetic energy density of atom read in
  atomic valenz-charges read in
  non local Contribution for L=           0  read in
    real space projection operators read in
  non local Contribution for L=           0  read in
    real space projection operators read in
  non local Contribution for L=           1  read in
    real space projection operators read in
  non local Contribution for L=           1  read in
    real space projection operators read in
    PAW grid and wavefunctions read in

   number of l-projection  operators is LMAX  =           4
   number of lm-projection operators is LMMAX =           8

  PAW_PBE Si 05Jan2001                  :
 energy of atom  1       EATOM= -103.0669
 kinetic energy error for atom=    0.0005 (will be added to EATOM!!)
  PAW_PBE O 08Apr2002                   :
 energy of atom  2       EATOM= -432.3788
 kinetic energy error for atom=    0.0208 (will be added to EATOM!!)


 POSCAR: Si O
  positions in cartesian coordinates
  No initial velocities read in


 exchange-correlation table for PE
   RHO(1)=    0.500       N(1)  =     2000
   RHO(2)=  100.500       N(2)  =     4000



--------------------------------------------------------------------------------------------------------


 ion  position               nearest neighbor table
   1  0.000  0.466  0.333-   6 1.62   9 1.62   4 1.63   8 1.63   3 3.07   3 3.07   2 3.07   2 3.07

   2  0.534  0.534  0.000-   5 1.62   8 1.62   7 1.63   6 1.63   1 3.07   3 3.07   3 3.07   1 3.07

   3  0.466  0.000  0.667-   7 1.62   4 1.62   5 1.63   9 1.63   1 3.07   1 3.07   2 3.07   2 3.07

   4  0.137  0.727  0.553-   3 1.62   1 1.63
   5  0.590  0.863  0.886-   2 1.62   3 1.63
   6  0.273  0.410  0.219-   1 1.62   2 1.63
   7  0.410  0.273  0.781-   3 1.62   2 1.63
   8  0.863  0.590  0.114-   2 1.62   1 1.63
   9  0.727  0.137  0.447-   1 1.62   3 1.63

  LATTYP: Found a hexagonal cell.
 ALAT       =     4.9165578074
 C/A-ratio  =     1.1047617994
  
  Lattice vectors:
  
 A1 = (   2.4582789037,  -4.2578639604,   0.0000000000)
 A2 = (   2.4582789037,   4.2578639604,   0.0000000000)
 A3 = (   0.0000000000,   0.0000000000,   5.4316252501)


Analysis of symmetry for initial positions (statically):
=====================================================================
 Subroutine PRICEL returns:
 Original cell was already a primitive cell.
 

 Routine SETGRP: Setting up the symmetry group for a 
 hexagonal supercell.


 Subroutine GETGRP returns: Found  6 space group operations
 (whereof  2 operations were pure point group operations)
 out of a pool of 24 trial point group operations.


The static configuration has the point symmetry C_2 .
 The point group associated with its full space group is D_3 .


Analysis of symmetry for dynamics (positions and initial velocities):
=====================================================================
 Subroutine PRICEL returns:
 Original cell was already a primitive cell.
 

 Routine SETGRP: Setting up the symmetry group for a 
 hexagonal supercell.


 Subroutine GETGRP returns: Found  6 space group operations
 (whereof  2 operations were pure point group operations)
 out of a pool of 24 trial point group operations.


The dynamic configuration has the point symmetry C_2 .
 The point group associated with its full space group is D_3 .


 Subroutine INISYM returns: Found  6 space group operations
 (whereof  2 operations are pure point group operations),
 and found     1 'primitive' translations


----------------------------------------------------------------------------------------

                                     Primitive cell                                     

  volume of cell :     113.7058

  direct lattice vectors                    reciprocal lattice vectors
     2.458278904 -4.257863960  0.000000000     0.203394334 -0.117429773  0.000000000
     2.458278904  4.257863960  0.000000000     0.203394334  0.117429773 -0.000000000
     0.000000000  0.000000000  5.431625250    -0.000000000  0.000000000  0.184106958

  length of vectors
     4.916557807  4.916557807  5.431625250     0.234859547  0.234859547  0.184106958

  position of ions in fractional coordinates (direct lattice)
     1.000000000  0.466279016  0.333333333
     0.533720984  0.533720984  0.000000000
     0.466279016  1.000000000  0.666666667
     0.137096180  0.726805175  0.552569050
     0.589708995  0.862903820  0.885902384
     0.273194825  0.410291005  0.219235717
     0.410291005  0.273194825  0.780764283
     0.862903820  0.589708995  0.114097616
     0.726805175  0.137096180  0.447430950

  ion indices of the primitive-cell ions
   primitive index   ion index
                 1           1
                 2           2
                 3           3
                 4           4
                 5           5
                 6           6
                 7           7
                 8           8
                 9           9

----------------------------------------------------------------------------------------


 -----------------------------------------------------------------------------
|                                                                             |
|           W    W    AA    RRRRR   N    N  II  N    N   GGGG   !!!           |
|           W    W   A  A   R    R  NN   N  II  NN   N  G    G  !!!           |
|           W    W  A    A  R    R  N N  N  II  N N  N  G       !!!           |
|           W WW W  AAAAAA  RRRRR   N  N N  II  N  N N  G  GGG   !            |
|           WW  WW  A    A  R   R   N   NN  II  N   NN  G    G                |
|           W    W  A    A  R    R  N    N  II  N    N   GGGG   !!!           |
|                                                                             |
|     The requested file  could not be found or opened for reading            |
|     k-point information. Automatic k-point generation is used as a          |
|     fallback, which may lead to unwanted results.                           |
|                                                                             |
 -----------------------------------------------------------------------------



Automatic generation of k-mesh.
 Grid dimensions derived from KSPACING:
 generate k-points for:    5    5    4

 Generating k-lattice:

  Cartesian coordinates                     Fractional coordinates (reciprocal lattice)
     0.040678867 -0.023485955  0.000000000     0.200000000  0.000000000  0.000000000
     0.040678867  0.023485955 -0.000000000     0.000000000  0.200000000  0.000000000
    -0.000000000  0.000000000  0.046026739     0.000000000  0.000000000  0.250000000

  Length of vectors
     0.046971909  0.046971909  0.046026739

  Shift w.r.t. Gamma in fractional coordinates (k-lattice)
     0.000000000  0.000000000  0.000000000

 
 Subroutine IBZKPT returns following result:
 ===========================================
 
 Found     17 irreducible k-points:
 
 Following reciprocal coordinates:
            Coordinates               Weight
  0.000000  0.000000  0.000000      1.000000
  0.200000  0.000000  0.000000      6.000000
  0.400000  0.000000  0.000000      6.000000
  0.200000  0.200000  0.000000      6.000000
  0.400000  0.200000  0.000000      6.000000
  0.000000  0.000000  0.250000      2.000000
  0.200000  0.000000  0.250000      6.000000
  0.000000  0.200000  0.250000      6.000000
  0.400000  0.000000  0.250000      6.000000
  0.000000  0.400000  0.250000      6.000000
  0.200000  0.200000  0.250000     12.000000
  0.400000  0.200000  0.250000     12.000000
  0.000000  0.000000  0.500000      1.000000
  0.200000  0.000000  0.500000      6.000000
  0.400000  0.000000  0.500000      6.000000
  0.200000  0.200000  0.500000      6.000000
  0.400000  0.200000  0.500000      6.000000
 
 Following cartesian coordinates:
            Coordinates               Weight
  0.000000 -0.000000  0.000000      1.000000
  0.040679 -0.023486  0.000000      6.000000
  0.081358 -0.046972  0.000000      6.000000
  0.081358  0.000000  0.000000      6.000000
  0.122037 -0.023486  0.000000      6.000000
  0.000000 -0.000000  0.046027      2.000000
  0.040679 -0.023486  0.046027      6.000000
  0.040679  0.023486  0.046027      6.000000
  0.081358 -0.046972  0.046027      6.000000
  0.081358  0.046972  0.046027      6.000000
  0.081358  0.000000  0.046027     12.000000
  0.122037 -0.023486  0.046027     12.000000
  0.000000 -0.000000  0.092053      1.000000
  0.040679 -0.023486  0.092053      6.000000
  0.081358 -0.046972  0.092053      6.000000
  0.081358  0.000000  0.092053      6.000000
  0.122037 -0.023486  0.092053      6.000000
 


--------------------------------------------------------------------------------------------------------




 Dimension of arrays:
   k-points           NKPTS =     17   k-points in BZ     NKDIM =     17   number of bands    NBANDS=     42
   number of dos      NEDOS =    301   number of ions     NIONS =      9
   non local maximal  LDIM  =      4   non local SUM 2l+1 LMDIM =      8
   total plane-waves  NPLWV =  64000
   max r-space proj   IRMAX =      1   max aug-charges    IRDMAX=  19016
   dimension x,y,z NGX =    40 NGY =   40 NGZ =   40
   dimension x,y,z NGXF=    80 NGYF=   80 NGZF=   80
   support grid    NGXF=    80 NGYF=   80 NGZF=   80
   ions per type =               3   6
   NGX,Y,Z   is equivalent  to a cutoff of  13.53, 13.53, 12.24 a.u.
   NGXF,Y,Z  is equivalent  to a cutoff of  27.05, 27.05, 24.49 a.u.

 SYSTEM =  unknown system                          
 POSCAR =  Si O                                    

 Startparameter for this run:
   NWRITE =      2    write-flag & timer
   PREC   = accura    normal or accurate (medium, high low for compatibility)
   ISTART =      1    job   : 0-new  1-cont  2-samecut
   ICHARG =      0    charge: 1-file 2-atom 10-const
   ISPIN  =      1    spin polarized calculation?
   LNONCOLLINEAR =      F non collinear calculations
   LSORBIT =      F    spin-orbit coupling
   INIWAV =      1    electr: 0-lowe 1-rand  2-diag
   LASPH  =      F    aspherical Exc in radial PAW
 Electronic Relaxation 1
   ENCUT  =  520.0 eV  38.22 Ry    6.18 a.u.   9.14  9.14 10.10*2*pi/ulx,y,z
   ENINI  =  520.0     initial cutoff
   ENAUG  =  605.4 eV  augmentation charge cutoff
   NELM   =    120;   NELMIN=  2; NELMDL=  0     # of ELM steps 
   EDIFF  = 0.1E-05   stopping-criterion for ELM
   LREAL  =      F    real-space projection
   NLSPLINE    = F    spline interpolate recip. space projectors
   LCOMPAT=      F    compatible to vasp.4.4
   GGA_COMPAT  = T    GGA compatible to vasp.4.4-vasp.4.6
   LMAXPAW     = -100 max onsite density
   LMAXMIX     =    2 max onsite mixed and CHGCAR
   VOSKOWN=      0    Vosko Wilk Nusair interpolation
   ROPT   =    0.00000   0.00000
 Ionic relaxation
   EDIFFG = -.1E-01   stopping-criterion for IOM
   NSW    =    200    number of steps for IOM
   NBLOCK =      1;   KBLOCK =    200    inner block; outer block 
   IBRION =      1    ionic relax: 0-MD 1-quasi-New 2-CG
   NFREE  =      0    steps in history (QN), initial steepest desc. (CG)
   ISIF   =      3    stress and relaxation
   IWAVPR =     11    prediction:  0-non 1-charg 2-wave 3-comb
   ISYM   =      2    0-nonsym 1-usesym 2-fastsym
   LCORR  =      T    Harris-Foulkes like correction to forces

   POTIM  = 0.5000    time-step for ionic-motion
   TEIN   =    0.0    initial temperature
   TEBEG  =    0.0;   TEEND  =   0.0 temperature during run
   SMASS  =  -3.00    Nose mass-parameter (am)
   estimated Nose-frequenzy (Omega)   =  0.10E-29 period in steps = 0.13E+47 mass=  -0.552E-27a.u.
   SCALEE = 1.0000    scale energy and forces
   NPACO  =    256;   APACO  = 10.0  distance and # of slots for P.C.
   PSTRESS=    0.0 pullay stress

  Mass of Ions in am
   POMASS =  28.09 16.00
  Ionic Valenz
   ZVAL   =   4.00  6.00
  Atomic Wigner-Seitz radii
   RWIGS  =  -1.00 -1.00
  virtual crystal weights 
   VCA    =   1.00  1.00
   NELECT =      48.0000    total number of electrons
   NUPDOWN=      -1.0000    fix difference up-down

 DOS related values:
   EMIN   =  10.00;   EMAX   =-10.00  energy-range for DOS
   EFERMI =   0.00;   METHOD = LEGACY      
   ISMEAR =     0;   SIGMA  =   0.03  broadening in eV -4-tet -1-fermi 0-gaus

 Electronic relaxation 2 (details)
   IALGO  =     38    algorithm
   LDIAG  =      T    sub-space diagonalisation (order eigenvalues)
   LSUBROT=      F    optimize rotation matrix (better conditioning)
   TURBO    =      0    0=normal 1=particle mesh
   IRESTART =      0    0=no restart 2=restart with 2 vectors
   NREBOOT  =      0    no. of reboots
   NMIN     =      0    reboot dimension
   EREF     =   0.00    reference energy to select bands
   IMIX   =      4    mixing-type and parameters
     AMIX     =   0.40;   BMIX     =  1.00
     AMIX_MAG =   1.60;   BMIX_MAG =  1.00
     AMIN     =   0.10
     WC   =   100.;   INIMIX=   1;  MIXPRE=   1;  MAXMIX= -45

 Intra band minimization:
   WEIMIN = 0.0010     energy-eigenvalue tresh-hold
   EBREAK =  0.60E-08  absolut break condition
   DEPER  =   0.30     relativ break condition  

   TIME   =   0.40     timestep for ELM

  volume/ion in A,a.u.               =      12.63        85.26
  Fermi-wavevector in a.u.,A,eV,Ry     =   1.228083  2.320740 20.520137  1.508187
  Thomas-Fermi vector in A             =   2.363022

 Write flags
   LWAVE        =      T    write WAVECAR
   LDOWNSAMPLE  =      F    k-point downsampling of WAVECAR
   LCHARG       =      T    write CHGCAR
   LVTOT        =      F    write LOCPOT, total local potential
   LVHAR        =      F    write LOCPOT, Hartree potential only
   WRT_POTENTIAL= false  ! write potential to hdf5 file
   LELF         =      F    write electronic localiz. function (ELF)
   LORBIT       =      0    0 simple, 1 ext, 2 COOP (PROOUT), +10 PAW based schemes


 Dipole corrections
   LMONO      =      F    monopole corrections only (constant potential shift)
   LDIPOL     =      F    correct potential (dipole corrections)
   IDIPOL     =      0    1-x, 2-y, 3-z, 4-all directions 
   EPSILON    =  1.0000000 bulk dielectric constant
   LVACPOTAV  =      F  vacuum potentials using an averaging scheme for the charge density
   VACPOTFLAT =  0.1000000 required flatness to determine vacuum potential
 Exchange correlation treatment:
   GGA     = PE    functional components
   XC_C    = 1    coefficients multiplying the functional components
   LIBXC   =     F    Libxc                    
   VOSKOWN =     0    Vosko Wilk Nusair interpolation
   LHFCALC =     F    Hartree Fock is set to
   LHFONE  =     F    Hartree Fock one center treatment
   AEXX    =    0.0000 exact exchange contribution

 Parameters of functionals:
   PE:
     No parameter

 Van der Waals corrections
   IVDW    =     0    specifies the selected vdW correction

 Linear response parameters
   LEPSILON=     F    determine dielectric tensor
   LRPA    =     F    only Hartree local field effects (RPA)
   LNABLA  =     F    use nabla operator in PAW spheres
   LVEL    =     F    velocity operator in full k-point grid
   CSHIFT  =0.1000    complex shift for real part using Kramers Kronig
   OMEGAMAX=  -1.0    maximum frequency
   DEG_THRESHOLD= 0.2000000E-02 threshold for treating states as degnerate
   RTIME   =   -0.100 relaxation time in fs
  (WPLASMAI=    0.000 imaginary part of plasma frequency in eV, 0.658/RTIME)
   DFIELD  = 0.0000000 0.0000000 0.0000000 field for delta impulse in time

  Optional k-point grid parameters
   LKPOINTS_OPT  =     F    use optional k-point grid
   KPOINTS_OPT_MODE=     1    mode for optional k-point grid

 Orbital magnetization related:
   ORBITALMAG=     F  switch on orbital magnetization
   LCHIMAG   =     F  perturbation theory with respect to B field
   DQ        =  0.001000  dq finite difference perturbation B field
   LLRAUG    =     F  two centre corrections for induced B field
   LBONE     =     F  B-component reconstruction in AE one-centre
   LVGVCALC  =     T  calculate vGv susceptibility
   LVGVAPPL  =     F  apply vGv susceptibility instead of pGv for G=0

 Random number generation:
   RANDOM_GENERATOR = DEFAULT
   PCG_SEED         = not used


--------------------------------------------------------------------------------------------------------


 quasi-Newton-method for relaxation of ions
 charge density and potential will be updated during run
 non-spin polarized calculation
 Variant of blocked Davidson
 Davidson routine will perform the subspace rotation
 perform sub-space diagonalisation
    after iterative eigenvector-optimisation
 modified Broyden-mixing scheme, WC =      100.0
 initial mixing is a Kerker type mixing with AMIX =  0.4000 and BMIX =      1.0000
 Hartree-type preconditioning will be used
 using additional bands           18
 reciprocal scheme for non local part
 use partial core corrections
 calculate Harris-corrections to forces   (improved forces if not selfconsistent)
 use gradient corrections 
 use of overlap-Matrix (Vanderbilt PP)
 Gauss-broadening in eV      SIGMA  =   0.03


--------------------------------------------------------------------------------------------------------


  energy-cutoff  :      520.00
  volume of cell :      113.71
      direct lattice vectors                 reciprocal lattice vectors
     2.458278904 -4.257863960  0.000000000     0.203394334 -0.117429773  0.000000000
     2.458278904  4.257863960  0.000000000     0.203394334  0.117429773 -0.000000000
     0.000000000  0.000000000  5.431625250    -0.000000000  0.000000000  0.184106958

  length of vectors
     4.916557807  4.916557807  5.431625250     0.234859547  0.234859547  0.184106958



 old parameters found on file WAVECAR:
  energy-cutoff  :      520.00
  volume of cell :      113.71
      direct lattice vectors                 reciprocal lattice vectors
     2.458278904 -4.257863960  0.000000000     0.203394334 -0.117429773  0.000000000
     2.458278904  4.257863960  0.000000000     0.203394334  0.117429773 -0.000000000
     0.000000000  0.000000000  5.431625250    -0.000000000  0.000000000  0.184106958

  length of vectors


 k-points in units of 2pi/SCALE and weight: read from INCAR                         
   0.00000000  0.00000000  0.00000000       0.010
   0.04067887 -0.02348595  0.00000000       0.060
   0.08135773 -0.04697191  0.00000000       0.060
   0.08135773 -0.00000000  0.00000000       0.060
   0.12203660 -0.02348595  0.00000000       0.060
   0.00000000  0.00000000  0.04602674       0.020
   0.04067887 -0.02348595  0.04602674       0.060
   0.04067887  0.02348595  0.04602674       0.060
   0.08135773 -0.04697191  0.04602674       0.060
   0.08135773  0.04697191  0.04602674       0.060
   0.08135773 -0.00000000  0.04602674       0.120
   0.12203660 -0.02348595  0.04602674       0.120
   0.00000000  0.00000000  0.09205348       0.010
   0.04067887 -0.02348595  0.09205348       0.060
   0.08135773 -0.04697191  0.09205348       0.060
   0.08135773 -0.00000000  0.09205348       0.060
   0.12203660 -0.02348595  0.09205348       0.060

 k-points in reciprocal lattice and weights: read from INCAR                         
   0.00000000  0.00000000  0.00000000       0.010
   0.20000000  0.00000000  0.00000000       0.060
   0.40000000  0.00000000  0.00000000       0.060
   0.20000000  0.20000000  0.00000000       0.060
   0.40000000  0.20000000  0.00000000       0.060
   0.00000000  0.00000000  0.25000000       0.020
   0.20000000  0.00000000  0.25000000       0.060
   0.00000000  0.20000000  0.25000000       0.060
   0.40000000  0.00000000  0.25000000       0.060
   0.00000000  0.40000000  0.25000000       0.060
   0.20000000  0.20000000  0.25000000       0.120
   0.40000000  0.20000000  0.25000000       0.120
   0.00000000  0.00000000  0.50000000       0.010
   0.20000000  0.00000000  0.50000000       0.060
   0.40000000  0.00000000  0.50000000       0.060
   0.20000000  0.20000000  0.50000000       0.060
   0.40000000  0.20000000  0.50000000       0.060

 position of ions in fractional coordinates (direct lattice) 
   0.00000000  0.46627902  0.33333333
   0.53372098  0.53372098  0.00000000
   0.46627902  0.00000000  0.66666667
   0.13709618  0.72680518  0.55256905
   0.58970899  0.86290382  0.88590238
   0.27319482  0.41029101  0.21923572
   0.41029101  0.27319482  0.78076428
   0.86290382  0.58970899  0.11409762
   0.72680518  0.13709618  0.44743095

 position of ions in cartesian coordinates  (Angst):
   1.14624387  1.98535262  1.81054175
   2.62407007 -0.00000000  0.00000000
   1.14624387 -1.98535262  3.62108350
   2.12371048  2.51090068  3.00134801
   3.57092744  1.16322640  4.81188976
   1.68019880  0.58373688  1.19080626
   1.68019880 -0.58373688  4.24081899
   3.57092744 -1.16322640  0.61973549
   2.12371048 -2.51090068  2.43027724



--------------------------------------------------------------------------------------------------------


 k-point     1 :   0.0000 0.0000 0.0000  plane waves:    3051
 k-point     2 :   0.2000 0.0000 0.0000  plane waves:    3060
 k-point     3 :   0.4000 0.0000 0.0000  plane waves:    3044
 k-point     4 :   0.2000 0.2000 0.0000  plane waves:    3057
 k-point     5 :   0.4000 0.2000 0.0000  plane waves:    3049
 k-point     6 :   0.0000 0.0000 0.2500  plane waves:    3014
 k-point     7 :   0.2000 0.0000 0.2500  plane waves:    3058
 k-point     8 :   0.0000 0.2000 0.2500  plane waves:    3058
 k-point     9 :   0.4000 0.0000 0.2500  plane waves:    3074
 k-point    10 :   0.0000 0.4000 0.2500  plane waves:    3074
 k-point    11 :   0.2000 0.2000 0.2500  plane waves:    3059
 k-point    12 :   0.4000 0.2000 0.2500  plane waves:    3060
 k-point    13 :   0.0000 0.0000 0.5000  plane waves:    3068
 k-point    14 :   0.2000 0.0000 0.5000  plane waves:    3052
 k-point    15 :   0.4000 0.0000 0.5000  plane waves:    3074
 k-point    16 :   0.2000 0.2000 0.5000  plane waves:    3054
 k-point    17 :   0.4000 0.2000 0.5000  plane waves:    3072

 maximum and minimum number of plane-waves per node :      3074     3014

 maximum number of plane-waves:      3074
 maximum index in each direction: 
   IXMAX=    9   IYMAX=    9   IZMAX=   10
   IXMIN=   -9   IYMIN=   -9   IZMIN=  -10


 serial   3D FFT for wavefunctions
 parallel 3D FFT for charge:
    minimum data exchange during FFTs selected (reduces bandwidth)


 total amount of memory used by VASP MPI-rank0    46097. kBytes
=======================================================================

   base      :      30000. kBytes
   nonl-proj :       7145. kBytes
   fftplans  :       1570. kBytes
   grid      :       4774. kBytes
   one-center:         27. kBytes
   wavefun   :       2581. kBytes

     INWAV:  cpu time     23.4199: real time     51.4209
 Broyden mixing: mesh for mixing (old mesh)
   NGX = 19   NGY = 19   NGZ = 21
  (NGX  = 80   NGY  = 80   NGZ  = 80)
  gives a total of   7581 points

 charge density for first step will be calculated from the start-wavefunctions


--------------------------------------------------------------------------------------------------------


 Maximum index for augmentation-charges         1575 (set IRDMAX)


--------------------------------------------------------------------------------------------------------


 initial charge from wavefunction
 First call to EWALD:  gamma=   0.366
 Maximum number of real-space cells 3x 3x 3
 Maximum number of reciprocal cells 3x 3x 3

    FEWALD:  cpu time      0.3415: real time      0.6150


--------------------------------------- Ionic step        1  -------------------------------------------




--------------------------------------- Iteration      1(   1)  ---------------------------------------


    POTLOK:  cpu time      0.9090: real time      2.1166
    SETDIJ:  cpu time      0.2500: real time      0.5263
     EDDAV:  cpu time    163.1256: real time    339.9961
       DOS:  cpu time      0.4805: real time      0.9462
    CHARGE:  cpu time      1.3628: real time      2.9176
    MIXING:  cpu time      0.3819: real time      0.8065
    --------------------------------------------
      LOOP:  cpu time    166.5098: real time    347.3094

 eigenvalue-minimisations  :  1526
 total energy-change (2. order) :-0.7108229E+02  (-0.4881234E-06)
 number of electron      47.9999995 magnetization 
 augmentation part        3.5304903 magnetization 

 Broyden mixing:
  rms(total) = 0.28964E-03    rms(broyden)= 0.28959E-03
  rms(prec ) = 0.50153E-03
  weight for this iteration     100.00

 Free energy of the ion-electron system (eV)
  ---------------------------------------------------
  alpha Z        PSCENC =        69.31646906
  Ewald energy   TEWEN  =     -1909.61997064
  -Hartree energ DENC   =     -1050.81174298
  -exchange      EXHF   =         0.00000000
  -V(xc)+E(xc)   XCENC  =       150.07165527
  PAW double counting   =      7577.66525939    -7537.91588026
  entropy T*S    EENTRO =        -0.00000000
  eigenvalues    EBANDS =      -273.13505669
  atomic energy  EATOM  =      2903.34697324
  Solvation  Ediel_sol  =         0.00000000
  ---------------------------------------------------
  free energy    TOTEN  =       -71.08229362 eV

  energy without entropy =      -71.08229362  energy(sigma->0) =      -71.08229362


--------------------------------------------------------------------------------------------------------




--------------------------------------- Iteration      1(   2)  ---------------------------------------


    POTLOK:  cpu time      0.8202: real time      1.7887
    SETDIJ:  cpu time      0.2572: real time      0.6118
     EDDAV:  cpu time    126.0269: real time    260.6879
       DOS:  cpu time      0.3690: real time      0.7299
    --------------------------------------------
      LOOP:  cpu time    127.4733: real time    263.8182

 eigenvalue-minimisations  :   882
 total energy-change (2. order) : 0.2070101E-06  (-0.1065481E-06)
 number of electron      47.9999995 magnetization 
 augmentation part        3.5304903 magnetization 

 Free energy of the ion-electron system (eV)
  ---------------------------------------------------
  alpha Z        PSCENC =        69.31646906
  Ewald energy   TEWEN  =     -1909.61997064
  -Hartree energ DENC   =     -1050.82146222
  -exchange      EXHF   =         0.00000000
  -V(xc)+E(xc)   XCENC  =       150.07233490
  PAW double counting   =      7577.67999369    -7537.93085288
  entropy T*S    EENTRO =        -0.00000000
  eigenvalues    EBANDS =      -273.12577855
  atomic energy  EATOM  =      2903.34697324
  Solvation  Ediel_sol  =         0.00000000
  ---------------------------------------------------
  free energy    TOTEN  =       -71.08229341 eV

  energy without entropy =      -71.08229341  energy(sigma->0) =      -71.08229341


--------------------------------------------------------------------------------------------------------




 average (electrostatic) potential at core
  the test charge radii are     0.9892  0.7215
  (the norm of the test charge is              1.0000)
       1 -86.5630       2 -86.5630       3 -86.5630       4 -72.4000       5 -72.4000
       6 -72.4000       7 -72.4000       8 -72.4000       9 -72.4000



 E-fermi :   1.1914     XC(G=0):  -9.2228     alpha+bet :-10.2795

 val. band max:        1.0556361794   @ k =   0.4000   0.2000   0.0000
 cond. band min:       6.8983226685   @ k =   0.0000   0.0000   0.0000
 fundamental gap:      5.8426864891
 Fermi energy:         1.1914237690

 k-point     1 :       0.0000    0.0000    0.0000
  band No.  band energies     occupation 
      1     -18.2509      2.00000
      2     -16.7570      2.00000
      3     -16.7570      2.00000
      4     -16.1056      2.00000
      5     -16.1056      2.00000
      6     -16.1020      2.00000
      7      -7.0557      2.00000
      8      -7.0557      2.00000
      9      -4.2843      2.00000
     10      -4.2586      2.00000
     11      -4.0547      2.00000
     12      -4.0547      2.00000
     13      -1.8059      2.00000
     14      -1.8059      2.00000
     15      -1.5447      2.00000
     16      -1.3156      2.00000
     17      -0.3352      2.00000
     18      -0.3352      2.00000
     19      -0.3018      2.00000
     20       0.0542      2.00000
     21       0.0542      2.00000
     22       0.2899      2.00000
     23       0.7880      2.00000
     24       0.7880      2.00000
     25       6.8983      0.00000
     26      10.2503      0.00000
     27      10.2503      0.00000
     28      10.8039      0.00000
     29      10.8039      0.00000
     30      11.9828      0.00000
     31      12.5315      0.00000
     32      13.2279      0.00000
     33      13.3608      0.00000
     34      13.3608      0.00000
     35      14.0315      0.00000
     36      14.0315      0.00000
     37      14.6928      0.00000
     38      15.8754      0.00000
     39      15.8754      0.00000
     40      16.0715      0.00000
     41      16.1415      0.00000
     42      16.1415      0.00000

 k-point     2 :       0.2000    0.0000    0.0000
  band No.  band energies     occupation 
      1     -18.1352      2.00000
      2     -16.8804      2.00000
      3     -16.7412      2.00000
      4     -16.1567      2.00000
      5     -16.1271      2.00000
      6     -16.0970      2.00000
      7      -7.1100      2.00000
      8      -6.8083      2.00000
      9      -4.3059      2.00000
     10      -4.2883      2.00000
     11      -4.2049      2.00000
     12      -3.8568      2.00000
     13      -1.9666      2.00000
     14      -1.7248      2.00000
     15      -1.5148      2.00000
     16      -1.1116      2.00000
     17      -0.7135      2.00000
     18      -0.3882      2.00000
     19      -0.3299      2.00000
     20      -0.0056      2.00000
     21       0.0777      2.00000
     22       0.2257      2.00000
     23       0.8355      2.00000
     24       0.8884      2.00000
     25       7.5015      0.00000
     26      10.2386      0.00000
     27      10.3072      0.00000
     28      10.7789      0.00000
     29      10.9727      0.00000
     30      11.9797      0.00000
     31      12.1701      0.00000
     32      12.9044      0.00000
     33      13.2025      0.00000
     34      13.3898      0.00000
     35      13.8151      0.00000
     36      14.2359      0.00000
     37      14.6188      0.00000
     38      15.6700      0.00000
     39      15.9376      0.00000
     40      16.0956      0.00000
     41      16.1450      0.00000
     42      16.2950      0.00000

 k-point     3 :       0.4000    0.0000    0.0000
  band No.  band energies     occupation 
      1     -17.8496      2.00000
      2     -17.2016      2.00000
      3     -16.7135      2.00000
      4     -16.1917      2.00000
      5     -16.1531      2.00000
      6     -16.1205      2.00000
      7      -7.1930      2.00000
      8      -6.3196      2.00000
      9      -4.6506      2.00000
     10      -4.2859      2.00000
     11      -4.2322      2.00000
     12      -3.5090      2.00000
     13      -2.0111      2.00000
     14      -1.6853      2.00000
     15      -1.5428      2.00000
     16      -1.1850      2.00000
     17      -0.9381      2.00000
     18      -0.5986      2.00000
     19      -0.4629      2.00000
     20      -0.0044      2.00000
     21       0.0825      2.00000
     22       0.3249      2.00000
     23       0.8171      2.00000
     24       1.0070      2.00000
     25       8.7666      0.00000
     26      10.1320      0.00000
     27      10.3954      0.00000
     28      10.7621      0.00000
     29      11.4617      0.00000
     30      11.5582      0.00000
     31      11.9235      0.00000
     32      12.6405      0.00000
     33      12.7945      0.00000
     34      13.3646      0.00000
     35      13.6262      0.00000
     36      13.8930      0.00000
     37      14.3464      0.00000
     38      15.3337      0.00000
     39      15.8929      0.00000
     40      16.0692      0.00000
     41      16.4556      0.00000
     42      16.4977      0.00000

 k-point     4 :       0.2000    0.2000    0.0000
  band No.  band energies     occupation 
      1     -17.9252      2.00000
      2     -17.1065      2.00000
      3     -16.7343      2.00000
      4     -16.1845      2.00000
      5     -16.1517      2.00000
      6     -16.1105      2.00000
      7      -7.1939      2.00000
      8      -6.3795      2.00000
      9      -4.7170      2.00000
     10      -4.2725      2.00000
     11      -4.1246      2.00000
     12      -3.5895      2.00000
     13      -1.9824      2.00000
     14      -1.7393      2.00000
     15      -1.4503      2.00000
     16      -1.1123      2.00000
     17      -1.0328      2.00000
     18      -0.5387      2.00000
     19      -0.2523      2.00000
     20      -0.2463      2.00000
     21       0.1251      2.00000
     22       0.3163      2.00000
     23       0.8139      2.00000
     24       1.0029      2.00000
     25       8.4328      0.00000
     26      10.2724      0.00000
     27      10.4018      0.00000
     28      10.9104      0.00000
     29      11.1136      0.00000
     30      11.6321      0.00000
     31      11.9079      0.00000
     32      12.6627      0.00000
     33      13.0958      0.00000
     34      13.2996      0.00000
     35      13.6084      0.00000
     36      14.0324      0.00000
     37      14.3502      0.00000
     38      15.4971      0.00000
     39      15.5622      0.00000
     40      16.2403      0.00000
     41      16.4452      0.00000
     42      16.5180      0.00000

 k-point     5 :       0.4000    0.2000    0.0000
  band No.  band energies     occupation 
      1     -17.6717      2.00000
      2     -17.3749      2.00000
      3     -16.7357      2.00000
      4     -16.1931      2.00000
      5     -16.1521      2.00000
      6     -16.1308      2.00000
      7      -7.2475      2.00000
      8      -5.9404      2.00000
      9      -5.1380      2.00000
     10      -4.2084      2.00000
     11      -4.1389      2.00000
     12      -3.3859      2.00000
     13      -1.8905      2.00000
     14      -1.7786      2.00000
     15      -1.6880      2.00000
     16      -1.0566      2.00000
     17      -0.9457      2.00000
     18      -0.6413      2.00000
     19      -0.5805      2.00000
     20      -0.1135      2.00000
     21       0.0247      2.00000
     22       0.5185      2.00000
     23       0.7430      2.00000
     24       1.0556      2.00000
     25       9.4114      0.00000
     26       9.9696      0.00000
     27      10.4267      0.00000
     28      10.9091      0.00000
     29      11.5502      0.00000
     30      11.6007      0.00000
     31      11.8722      0.00000
     32      11.8794      0.00000
     33      12.7580      0.00000
     34      13.4885      0.00000
     35      13.6324      0.00000
     36      13.8651      0.00000
     37      14.0723      0.00000
     38      15.3378      0.00000
     39      15.5398      0.00000
     40      16.2317      0.00000
     41      16.3962      0.00000
     42      16.6365      0.00000

 k-point     6 :       0.0000    0.0000    0.2500
  band No.  band energies     occupation 
      1     -18.1308      2.00000
      2     -17.2973      2.00000
      3     -16.3213      2.00000
      4     -16.1128      2.00000
      5     -16.1047      2.00000
      6     -16.0923      2.00000
      7      -7.8237      2.00000
      8      -6.0446      2.00000
      9      -4.5119      2.00000
     10      -4.3343      2.00000
     11      -4.3153      2.00000
     12      -3.6911      2.00000
     13      -1.8887      2.00000
     14      -1.5712      2.00000
     15      -1.4785      2.00000
     16      -1.1251      2.00000
     17      -0.6121      2.00000
     18      -0.4648      2.00000
     19      -0.3701      2.00000
     20      -0.3443      2.00000
     21      -0.0216      2.00000
     22       0.4520      2.00000
     23       0.8742      2.00000
     24       0.9609      2.00000
     25       7.5027      0.00000
     26      10.0784      0.00000
     27      10.1713      0.00000
     28      10.2916      0.00000
     29      11.2478      0.00000
     30      11.6970      0.00000
     31      12.1944      0.00000
     32      12.9363      0.00000
     33      13.0038      0.00000
     34      13.5854      0.00000
     35      13.8919      0.00000
     36      14.5382      0.00000
     37      14.6084      0.00000
     38      15.3515      0.00000
     39      15.8272      0.00000
     40      16.3660      0.00000
     41      16.3707      0.00000
     42      16.5668      0.00000

 k-point     7 :       0.2000    0.0000    0.2500
  band No.  band energies     occupation 
      1     -18.0251      2.00000
      2     -17.2800      2.00000
      3     -16.4364      2.00000
      4     -16.1515      2.00000
      5     -16.1375      2.00000
      6     -16.1008      2.00000
      7      -7.6055      2.00000
      8      -6.0890      2.00000
      9      -4.7214      2.00000
     10      -4.2929      2.00000
     11      -4.0607      2.00000
     12      -3.7709      2.00000
     13      -2.0249      2.00000
     14      -1.5667      2.00000
     15      -1.4590      2.00000
     16      -1.1156      2.00000
     17      -0.8059      2.00000
     18      -0.4654      2.00000
     19      -0.3517      2.00000
     20      -0.2011      2.00000
     21       0.0947      2.00000
     22       0.3426      2.00000
     23       0.8018      2.00000
     24       0.9614      2.00000
     25       8.0070      0.00000
     26      10.0453      0.00000
     27      10.2843      0.00000
     28      10.4746      0.00000
     29      11.2703      0.00000
     30      11.5865      0.00000
     31      12.3493      0.00000
     32      12.4222      0.00000
     33      13.1692      0.00000
     34      13.3945      0.00000
     35      13.5547      0.00000
     36      14.0792      0.00000
     37      14.8074      0.00000
     38      15.1638      0.00000
     39      15.9706      0.00000
     40      16.2458      0.00000
     41      16.6697      0.00000
     42      16.7840      0.00000

 k-point     8 :       0.0000    0.2000    0.2500
  band No.  band energies     occupation 
      1     -18.0265      2.00000
      2     -17.2733      2.00000
      3     -16.4547      2.00000
      4     -16.1572      2.00000
      5     -16.1146      2.00000
      6     -16.1046      2.00000
      7      -7.6069      2.00000
      8      -6.0907      2.00000
      9      -4.7237      2.00000
     10      -4.3017      2.00000
     11      -4.0780      2.00000
     12      -3.7241      2.00000
     13      -1.9923      2.00000
     14      -1.5548      2.00000
     15      -1.4688      2.00000
     16      -1.2146      2.00000
     17      -0.8553      2.00000
     18      -0.3994      2.00000
     19      -0.2948      2.00000
     20      -0.2172      2.00000
     21       0.1285      2.00000
     22       0.2991      2.00000
     23       0.7360      2.00000
     24       1.0295      2.00000
     25       7.9820      0.00000
     26      10.1366      0.00000
     27      10.3807      0.00000
     28      10.4867      0.00000
     29      11.1709      0.00000
     30      11.5626      0.00000
     31      11.9757      0.00000
     32      12.5524      0.00000
     33      13.2317      0.00000
     34      13.3807      0.00000
     35      13.7009      0.00000
     36      14.2520      0.00000
     37      14.6058      0.00000
     38      15.3605      0.00000
     39      15.9476      0.00000
     40      16.3883      0.00000
     41      16.5485      0.00000
     42      16.7169      0.00000

 k-point     9 :       0.4000    0.0000    0.2500
  band No.  band energies     occupation 
      1     -17.7859      2.00000
      2     -17.2807      2.00000
      3     -16.6978      2.00000
      4     -16.1967      2.00000
      5     -16.1637      2.00000
      6     -16.1179      2.00000
      7      -7.2065      2.00000
      8      -6.1483      2.00000
      9      -4.9873      2.00000
     10      -4.2334      2.00000
     11      -3.9508      2.00000
     12      -3.6917      2.00000
     13      -2.0945      2.00000
     14      -1.8124      2.00000
     15      -1.3918      2.00000
     16      -1.1478      2.00000
     17      -0.7804      2.00000
     18      -0.6133      2.00000
     19      -0.3839      2.00000
     20      -0.0447      2.00000
     21       0.1962      2.00000
     22       0.2872      2.00000
     23       0.7370      2.00000
     24       0.9082      2.00000
     25       9.1066      0.00000
     26      10.0178      0.00000
     27      10.3668      0.00000
     28      10.9548      0.00000
     29      11.2699      0.00000
     30      11.4513      0.00000
     31      12.0882      0.00000
     32      12.2978      0.00000
     33      12.7598      0.00000
     34      13.0285      0.00000
     35      13.2591      0.00000
     36      13.7776      0.00000
     37      14.4890      0.00000
     38      15.0148      0.00000
     39      16.1398      0.00000
     40      16.3089      0.00000
     41      16.6716      0.00000
     42      17.0567      0.00000

 k-point    10 :       0.0000    0.4000    0.2500
  band No.  band energies     occupation 
      1     -17.7922      2.00000
      2     -17.2563      2.00000
      3     -16.7308      2.00000
      4     -16.1906      2.00000
      5     -16.1552      2.00000
      6     -16.1172      2.00000
      7      -7.2087      2.00000
      8      -6.1536      2.00000
      9      -4.9847      2.00000
     10      -4.2673      2.00000
     11      -3.9337      2.00000
     12      -3.6419      2.00000
     13      -2.0244      2.00000
     14      -1.8569      2.00000
     15      -1.3842      2.00000
     16      -1.3206      2.00000
     17      -0.8134      2.00000
     18      -0.5062      2.00000
     19      -0.2886      2.00000
     20      -0.0404      2.00000
     21       0.0720      2.00000
     22       0.4211      2.00000
     23       0.5694      2.00000
     24       1.0034      2.00000
     25       9.0326      0.00000
     26      10.1488      0.00000
     27      10.5691      0.00000
     28      11.0003      0.00000
     29      11.3189      0.00000
     30      11.3695      0.00000
     31      11.5842      0.00000
     32      12.2161      0.00000
     33      12.6322      0.00000
     34      13.0783      0.00000
     35      13.7422      0.00000
     36      14.0454      0.00000
     37      14.1393      0.00000
     38      15.4253      0.00000
     39      15.9733      0.00000
     40      16.1860      0.00000
     41      16.4415      0.00000
     42      16.8359      0.00000

 k-point    11 :       0.2000    0.2000    0.2500
  band No.  band energies     occupation 
      1     -17.8459      2.00000
      2     -17.2641      2.00000
      3     -16.6542      2.00000
      4     -16.1833      2.00000
      5     -16.1566      2.00000
      6     -16.1175      2.00000
      7      -7.2923      2.00000
      8      -6.1068      2.00000
      9      -5.0033      2.00000
     10      -4.2331      2.00000
     11      -3.9298      2.00000
     12      -3.7123      2.00000
     13      -2.0676      2.00000
     14      -1.6822      2.00000
     15      -1.5061      2.00000
     16      -1.1806      2.00000
     17      -0.8502      2.00000
     18      -0.5080      2.00000
     19      -0.3016      2.00000
     20      -0.0616      2.00000
     21       0.1279      2.00000
     22       0.2992      2.00000
     23       0.6990      2.00000
     24       0.9554      2.00000
     25       8.7762      0.00000
     26      10.1418      0.00000
     27      10.5456      0.00000
     28      10.8198      0.00000
     29      11.2455      0.00000
     30      11.4116      0.00000
     31      11.7673      0.00000
     32      12.5258      0.00000
     33      12.8406      0.00000
     34      13.0580      0.00000
     35      13.5509      0.00000
     36      13.8471      0.00000
     37      14.3127      0.00000
     38      15.2021      0.00000
     39      15.9400      0.00000
     40      16.2996      0.00000
     41      16.7953      0.00000
     42      17.1273      0.00000

 k-point    12 :       0.4000    0.2000    0.2500
  band No.  band energies     occupation 
      1     -17.6745      2.00000
      2     -17.2971      2.00000
      3     -16.8033      2.00000
      4     -16.1965      2.00000
      5     -16.1761      2.00000
      6     -16.1289      2.00000
      7      -7.0817      2.00000
      8      -6.0369      2.00000
      9      -5.2697      2.00000
     10      -4.2081      2.00000
     11      -3.9315      2.00000
     12      -3.5956      2.00000
     13      -2.0480      2.00000
     14      -1.8284      2.00000
     15      -1.5504      2.00000
     16      -1.0271      2.00000
     17      -0.8332      2.00000
     18      -0.6954      2.00000
     19      -0.2455      2.00000
     20      -0.1486      2.00000
     21       0.1491      2.00000
     22       0.4626      2.00000
     23       0.6129      2.00000
     24       0.9055      2.00000
     25       9.5541      0.00000
     26      10.1232      0.00000
     27      10.5357      0.00000
     28      10.9339      0.00000
     29      11.2404      0.00000
     30      11.5323      0.00000
     31      11.7918      0.00000
     32      12.1780      0.00000
     33      12.5389      0.00000
     34      12.9843      0.00000
     35      13.2953      0.00000
     36      13.6456      0.00000
     37      14.1337      0.00000
     38      15.2233      0.00000
     39      15.6509      0.00000
     40      16.5601      0.00000
     41      16.8687      0.00000
     42      17.1129      0.00000

 k-point    13 :       0.0000    0.0000    0.5000
  band No.  band energies     occupation 
      1     -17.7917      2.00000
      2     -17.7917      2.00000
      3     -16.1508      2.00000
      4     -16.1109      2.00000
      5     -16.1109      2.00000
      6     -16.0858      2.00000
      7      -8.1118      2.00000
      8      -5.1030      2.00000
      9      -5.1030      2.00000
     10      -4.4257      2.00000
     11      -4.4257      2.00000
     12      -3.4945      2.00000
     13      -1.5987      2.00000
     14      -1.5987      2.00000
     15      -1.5084      2.00000
     16      -0.8862      2.00000
     17      -0.8862      2.00000
     18      -0.6671      2.00000
     19      -0.6671      2.00000
     20      -0.3507      2.00000
     21      -0.1492      2.00000
     22       0.7999      2.00000
     23       0.7999      2.00000
     24       0.9952      2.00000
     25       8.8623      0.00000
     26       8.8623      0.00000
     27      10.0953      0.00000
     28      10.6321      0.00000
     29      10.6321      0.00000
     30      11.7130      0.00000
     31      12.5338      0.00000
     32      12.5350      0.00000
     33      12.5350      0.00000
     34      13.8246      0.00000
     35      13.8246      0.00000
     36      14.7357      0.00000
     37      14.7357      0.00000
     38      14.9085      0.00000
     39      15.5337      0.00000
     40      16.5491      0.00000
     41      16.7414      0.00000
     42      16.7414      0.00000

 k-point    14 :       0.2000    0.0000    0.5000
  band No.  band energies     occupation 
      1     -17.7595      2.00000
      2     -17.6711      2.00000
      3     -16.2978      2.00000
      4     -16.1677      2.00000
      5     -16.1247      2.00000
      6     -16.1035      2.00000
      7      -7.8317      2.00000
      8      -5.3963      2.00000
      9      -5.1709      2.00000
     10      -4.2944      2.00000
     11      -4.2224      2.00000
     12      -3.5670      2.00000
     13      -1.8187      2.00000
     14      -1.7914      2.00000
     15      -1.4065      2.00000
     16      -1.0607      2.00000
     17      -0.9368      2.00000
     18      -0.4952      2.00000
     19      -0.4056      2.00000
     20      -0.2078      2.00000
     21      -0.0464      2.00000
     22       0.6728      2.00000
     23       0.6828      2.00000
     24       0.9390      2.00000
     25       9.0866      0.00000
     26       9.2072      0.00000
     27      10.2660      0.00000
     28      10.6649      0.00000
     29      10.8645      0.00000
     30      11.5447      0.00000
     31      12.0032      0.00000
     32      12.5068      0.00000
     33      12.8664      0.00000
     34      13.2530      0.00000
     35      13.5160      0.00000
     36      14.4139      0.00000
     37      14.6311      0.00000
     38      15.0001      0.00000
     39      16.2107      0.00000
     40      16.5174      0.00000
     41      16.7369      0.00000
     42      16.7803      0.00000

 k-point    15 :       0.4000    0.0000    0.5000
  band No.  band energies     occupation 
      1     -17.7041      2.00000
      2     -17.3636      2.00000
      3     -16.7080      2.00000
      4     -16.2092      2.00000
      5     -16.1504      2.00000
      6     -16.1191      2.00000
      7      -7.2139      2.00000
      8      -5.9515      2.00000
      9      -5.2326      2.00000
     10      -4.1643      2.00000
     11      -3.9221      2.00000
     12      -3.7332      2.00000
     13      -2.0453      2.00000
     14      -2.0285      2.00000
     15      -1.2869      2.00000
     16      -1.0728      2.00000
     17      -0.9044      2.00000
     18      -0.3981      2.00000
     19      -0.2144      2.00000
     20      -0.0442      2.00000
     21       0.1357      2.00000
     22       0.3228      2.00000
     23       0.5153      2.00000
     24       0.9088      2.00000
     25       9.5623      0.00000
     26      10.0126      0.00000
     27      10.5174      0.00000
     28      10.8079      0.00000
     29      11.2163      0.00000
     30      11.4926      0.00000
     31      11.6301      0.00000
     32      12.1673      0.00000
     33      12.3281      0.00000
     34      12.7899      0.00000
     35      13.1787      0.00000
     36      13.8482      0.00000
     37      14.6396      0.00000
     38      15.1388      0.00000
     39      16.1416      0.00000
     40      16.4506      0.00000
     41      16.6111      0.00000
     42      17.6383      0.00000

 k-point    16 :       0.2000    0.2000    0.5000
  band No.  band energies     occupation 
      1     -17.7096      2.00000
      2     -17.4562      2.00000
      3     -16.5926      2.00000
      4     -16.1914      2.00000
      5     -16.1414      2.00000
      6     -16.1390      2.00000
      7      -7.3586      2.00000
      8      -5.7804      2.00000
      9      -5.2901      2.00000
     10      -4.1193      2.00000
     11      -4.0337      2.00000
     12      -3.6957      2.00000
     13      -2.0405      2.00000
     14      -1.9123      2.00000
     15      -1.2952      2.00000
     16      -1.2027      2.00000
     17      -0.8299      2.00000
     18      -0.4776      2.00000
     19      -0.2013      2.00000
     20      -0.0190      2.00000
     21       0.0661      2.00000
     22       0.4446      2.00000
     23       0.5938      2.00000
     24       0.8157      2.00000
     25       9.4373      0.00000
     26       9.8108      0.00000
     27      10.4338      0.00000
     28      10.8810      0.00000
     29      11.1666      0.00000
     30      11.5562      0.00000
     31      11.5594      0.00000
     32      12.3380      0.00000
     33      12.4558      0.00000
     34      12.9754      0.00000
     35      13.1669      0.00000
     36      13.9021      0.00000
     37      14.4967      0.00000
     38      15.0080      0.00000
     39      16.0777      0.00000
     40      16.5647      0.00000
     41      16.9455      0.00000
     42      17.4923      0.00000

 k-point    17 :       0.4000    0.2000    0.5000
  band No.  band energies     occupation 
      1     -17.6749      2.00000
      2     -17.1890      2.00000
      3     -16.9053      2.00000
      4     -16.2130      2.00000
      5     -16.1607      2.00000
      6     -16.1516      2.00000
      7      -6.8384      2.00000
      8      -6.2356      2.00000
      9      -5.3526      2.00000
     10      -4.0444      2.00000
     11      -3.9103      2.00000
     12      -3.8011      2.00000
     13      -2.1339      2.00000
     14      -1.8762      2.00000
     15      -1.4759      2.00000
     16      -0.9338      2.00000
     17      -0.8388      2.00000
     18      -0.6346      2.00000
     19       0.0094      2.00000
     20       0.0807      2.00000
     21       0.1900      2.00000
     22       0.2803      2.00000
     23       0.4685      2.00000
     24       0.7178      2.00000
     25       9.7069      0.00000
     26      10.4337      0.00000
     27      10.7317      0.00000
     28      10.8664      0.00000
     29      11.0298      0.00000
     30      11.4490      0.00000
     31      11.6477      0.00000
     32      12.1019      0.00000
     33      12.4527      0.00000
     34      12.7143      0.00000
     35      12.9469      0.00000
     36      13.1942      0.00000
     37      14.5855      0.00000
     38      15.0125      0.00000
     39      15.7240      0.00000
     40      16.8554      0.00000
     41      17.0864      0.00000
     42      17.9152      0.00000


--------------------------------------------------------------------------------------------------------


 soft charge-density along one line, spin component           1
         0         1         2         3         4         5         6         7         8         9
 total charge-density along one line

 pseudopotential strength for first ion, spin component:           1
 18.766  26.185  -0.001   0.000  -0.000  -0.001   0.000  -0.001
 26.185  36.541  -0.001   0.000  -0.000  -0.001   0.000  -0.001
 -0.001  -0.001   4.216   0.000   0.000   7.860   0.000   0.000
  0.000   0.000   0.000   4.216  -0.000   0.000   7.860  -0.001
 -0.000  -0.000   0.000  -0.000   4.216   0.000  -0.001   7.860
 -0.001  -0.001   7.860   0.000   0.000  14.663   0.001   0.000
  0.000   0.000   0.000   7.860  -0.001   0.001  14.663  -0.001
 -0.001  -0.001   0.000  -0.001   7.860   0.000  -0.001  14.663
 total augmentation occupancy for first ion, spin component:           1
 13.328  -7.060  -0.056   0.000  -0.032   0.021  -0.000   0.012
 -7.060   3.871   0.041  -0.000   0.024  -0.014   0.000  -0.008
 -0.056   0.041   6.065   0.046   0.030  -2.005  -0.018  -0.021
  0.000  -0.000   0.046   6.147  -0.080  -0.018  -2.030   0.031
 -0.032   0.024   0.030  -0.080   6.031  -0.021   0.032  -1.981
  0.021  -0.014  -2.005  -0.018  -0.021   0.682   0.007   0.009
 -0.000   0.000  -0.018  -2.030   0.032   0.007   0.691  -0.012
  0.012  -0.008  -0.021   0.031  -1.981   0.009  -0.012   0.672


------------------------ aborting loop because EDIFF is reached ----------------------------------------


    CHARGE:  cpu time      1.7553: real time      3.6024
    FORLOC:  cpu time      0.0679: real time      0.1045
    FORNL :  cpu time      0.4471: real time      1.1589
    STRESS:  cpu time      1.6148: real time      3.2591
    FORCOR:  cpu time      0.7177: real time      1.4297
    FORHAR:  cpu time      0.2333: real time      0.4988
    MIXING:  cpu time      0.4539: real time      1.4164
    OFIELD:  cpu time      0.0000: real time      0.0000

  FORCE on cell =-STRESS in cart. coord.  units (eV):
  Direction    XX          YY          ZZ          XY          YZ          ZX
  --------------------------------------------------------------------------------------
  Alpha Z    69.31647    69.31647    69.31647
  Ewald    -656.76344  -656.76344  -596.09671     0.00000     0.00000     0.00000
  Hartree   339.84899   339.84900   371.12743     0.00000    -0.00000    -0.00000
  E(xc)    -224.79937  -224.79937  -224.75738    -0.00000     0.00000     0.00000
  Local    -399.69065  -399.69039  -490.11840    -0.00000     0.00001    -0.00000
  n-local   -52.09453   -52.34229   -51.36226    -0.10333     0.06770    -0.00882
  augment    27.12471    27.12456    26.97688    -0.00000     0.00004    -0.00000
  Kinetic   898.24665   899.29066   896.43581     0.37755    -0.03721    -0.12767
  Fock        0.00000     0.00000     0.00000     0.00000     0.00000     0.00000
  -------------------------------------------------------------------------------------
  Total       1.58701     1.58701     1.52185     0.00000     0.00000     0.00000
  in kB      22.36177    22.36177    21.44367     0.00000     0.00000     0.00000
  external pressure =       22.06 kB  Pullay stress =        0.00 kB


 VOLUME and BASIS-vectors are now :
 -----------------------------------------------------------------------------
  energy-cutoff  :      520.00
  volume of cell :      113.71
      direct lattice vectors                 reciprocal lattice vectors
     2.458278904 -4.257863960  0.000000000     0.203394334 -0.117429773  0.000000000
     2.458278904  4.257863960  0.000000000     0.203394334  0.117429773 -0.000000000
     0.000000000  0.000000000  5.431625250    -0.000000000  0.000000000  0.184106958

  length of vectors
     4.916557807  4.916557807  5.431625250     0.234859547  0.234859547  0.184106958


 FORCES acting on ions
    electron-ion (+dipol)            ewald-force                    non-local-force                 convergence-correction
 -----------------------------------------------------------------------------------------------
   0.101E+01 0.176E+01 0.351E-05   -.900E+00 -.156E+01 -.545E-11   -.111E+00 -.193E+00 -.291E-17   0.371E-04 0.643E-04 -.297E-09
   -.203E+01 -.795E-07 0.194E-07   0.180E+01 -.355E-14 -.196E-12   0.223E+00 0.779E-17 -.105E-17   -.742E-04 0.112E-14 0.548E-14
   0.101E+01 -.176E+01 -.362E-05   -.900E+00 0.156E+01 0.104E-11   -.111E+00 0.193E+00 -.286E-17   0.371E-04 -.643E-04 0.297E-09
   0.295E+02 -.639E+02 -.330E+02   -.400E+02 0.798E+02 0.442E+02   0.105E+02 -.159E+02 -.112E+02   0.292E-02 0.706E-03 -.288E-02
   -.701E+02 0.642E+01 -.330E+02   0.891E+02 -.523E+01 0.442E+02   -.190E+02 -.118E+01 -.112E+02   -.851E-03 -.289E-02 -.288E-02
   0.406E+02 0.575E+02 -.330E+02   -.491E+02 -.745E+02 0.442E+02   0.847E+01 0.170E+02 -.112E+02   -.207E-02 0.218E-02 -.288E-02
   0.406E+02 -.575E+02 0.330E+02   -.491E+02 0.745E+02 -.442E+02   0.847E+01 -.170E+02 0.112E+02   -.207E-02 -.218E-02 0.288E-02
   -.701E+02 -.642E+01 0.330E+02   0.891E+02 0.523E+01 -.442E+02   -.190E+02 0.118E+01 0.112E+02   -.851E-03 0.289E-02 0.288E-02
   0.295E+02 0.639E+02 0.330E+02   -.400E+02 -.798E+02 -.442E+02   0.105E+02 0.159E+02 0.112E+02   0.292E-02 -.706E-03 0.288E-02
 -----------------------------------------------------------------------------------------------
   0.315E-04 -.700E-08 0.211E-07   0.000E+00 -.284E-13 0.284E-13   -.355E-14 -.355E-14 0.533E-14   -.124E-07 0.510E-13 0.983E-13


 POSITION                                       TOTAL-FORCE (eV/Angst)
 -----------------------------------------------------------------------------------
      1.14624      1.98535      1.81054         0.003233      0.005601      0.000000
      2.62407     -0.00000      0.00000        -0.006467      0.000000      0.000000
      1.14624     -1.98535      3.62108         0.003233     -0.005601      0.000000
      2.12371      2.51090      3.00135        -0.000371     -0.008672      0.005389
      3.57093      1.16323      4.81189        -0.007325      0.004657      0.005389
      1.68020      0.58374      1.19081         0.007696      0.004015      0.005389
      1.68020     -0.58374      4.24082         0.007696     -0.004015     -0.005389
      3.57093     -1.16323      0.61974        -0.007325     -0.004657     -0.005389
      2.12371     -2.51090      2.43028        -0.000371      0.008672     -0.005389
 -----------------------------------------------------------------------------------
    total drift:                                0.000031     -0.000000      0.000000


--------------------------------------------------------------------------------------------------------



  FREE ENERGIE OF THE ION-ELECTRON SYSTEM (eV)
  ---------------------------------------------------
  free  energy   TOTEN  =       -71.08229341 eV

  energy  without entropy=      -71.08229341  energy(sigma->0) =      -71.08229341



--------------------------------------------------------------------------------------------------------


    POTLOK:  cpu time      1.4145: real time      3.0019


--------------------------------------------------------------------------------------------------------


 Quasi-Newton relaxation of ions (Broydens 2nd method)
  g(Force)  = 0.363E-04   g(Stress)= 0.394E-01

 Reset! Starting new Quasi-Newton update for ions 


--------------------------------------------------------------------------------------------------------


    WAVPRE:  cpu time      5.8762: real time     13.5660
    FEWALD:  cpu time      0.3514: real time      0.6317
    GENKIN:  cpu time      0.0045: real time      0.0092
    ORTHCH:  cpu time      6.4418: real time     13.6186
     LOOP+:  cpu time    313.8665: real time    654.7913


--------------------------------------- Ionic step        2  -------------------------------------------




--------------------------------------- Iteration      2(   1)  ---------------------------------------


    POTLOK:  cpu time      0.9450: real time      2.1090
    SETDIJ:  cpu time      0.3471: real time      0.6994
     EDDAV:  cpu time    161.3384: real time    334.5150
       DOS:  cpu time      0.3597: real time      0.8727
    CHARGE:  cpu time      1.5213: real time      3.3417
    MIXING:  cpu time      0.4667: real time      0.9478
    --------------------------------------------
      LOOP:  cpu time    164.9782: real time    342.4857

 eigenvalue-minimisations  :  1568
 total energy-change (2. order) :-0.1659543E+00  (-0.3121446E+00)
 number of electron      48.0000006 magnetization 
 augmentation part        3.6193955 magnetization 

 Broyden mixing:
  rms(total) = 0.32996E+00    rms(broyden)= 0.32984E+00
  rms(prec ) = 0.50350E+00
  weight for this iteration     100.00

 Free energy of the ion-electron system (eV)
  ---------------------------------------------------
  alpha Z        PSCENC =        67.60056838
  Ewald energy   TEWEN  =     -1893.58923515
  -Hartree energ DENC   =     -1042.18527156
  -exchange      EXHF   =         0.00000000
  -V(xc)+E(xc)   XCENC  =       148.49184965
  PAW double counting   =      7577.74490855    -7537.99580655
  entropy T*S    EENTRO =        -0.00000000
  eigenvalues    EBANDS =      -294.66223451
  atomic energy  EATOM  =      2903.34697324
  Solvation  Ediel_sol  =         0.00000000
  ---------------------------------------------------
  free energy    TOTEN  =       -71.24824794 eV

  energy without entropy =      -71.24824794  energy(sigma->0) =      -71.24824794


--------------------------------------------------------------------------------------------------------




--------------------------------------- Iteration      2(   2)  ---------------------------------------


    POTLOK:  cpu time      0.9542: real time      2.0048
    SETDIJ:  cpu time      0.3093: real time      0.6769
     EDDAV:  cpu time    165.0677: real time    326.5648
       DOS:  cpu time      0.2476: real time      0.4957
    CHARGE:  cpu time      1.6167: real time      3.3454
    MIXING:  cpu time      0.3781: real time      0.7638
    --------------------------------------------
      LOOP:  cpu time    168.5737: real time    333.8513

 eigenvalue-minimisations  :  1596
 total energy-change (2. order) : 0.1647746E+00  (-0.4835372E-01)
 number of electron      48.0000006 magnetization 
 augmentation part        3.5103230 magnetization 

 Broyden mixing:
  rms(total) = 0.53982E-01    rms(broyden)= 0.53930E-01
  rms(prec ) = 0.73876E-01
  weight for this iteration     100.00

 eigenvalues of (default mixing * dielectric matrix)
  average eigenvalue GAMMA=   1.1392
  1.1392

 Free energy of the ion-electron system (eV)
  ---------------------------------------------------
  alpha Z        PSCENC =        67.60056838
  Ewald energy   TEWEN  =     -1893.58923515
  -Hartree energ DENC   =     -1056.65646237
  -exchange      EXHF   =         0.00000000
  -V(xc)+E(xc)   XCENC  =       149.41478297
  PAW double counting   =      7319.95086492    -7280.31626783
  entropy T*S    EENTRO =        -0.00000000
  eigenvalues    EBANDS =      -280.83469752
  atomic energy  EATOM  =      2903.34697324
  Solvation  Ediel_sol  =         0.00000000
  ---------------------------------------------------
  free energy    TOTEN  =       -71.08347335 eV

  energy without entropy =      -71.08347335  energy(sigma->0) =      -71.08347335


--------------------------------------------------------------------------------------------------------




--------------------------------------- Iteration      2(   3)  ---------------------------------------


    POTLOK:  cpu time      0.8545: real time      1.7981
    SETDIJ:  cpu time      0.2257: real time      0.4661
     EDDAV:  cpu time    161.7403: real time    312.7374
       DOS:  cpu time      0.2978: real time      0.6766
    CHARGE:  cpu time      1.3484: real time      2.7163
    MIXING:  cpu time      0.4416: real time      0.8811
    --------------------------------------------
      LOOP:  cpu time    164.9083: real time    319.2756

 eigenvalue-minimisations  :  1806
 total energy-change (2. order) : 0.2219676E-02  (-0.1892545E-02)
 number of electron      48.0000006 magnetization 
 augmentation part        3.5055124 magnetization 

 Broyden mixing:
  rms(total) = 0.33297E-01    rms(broyden)= 0.33294E-01
  rms(prec ) = 0.41846E-01
  weight for this iteration     100.00

 eigenvalues of (default mixing * dielectric matrix)
  average eigenvalue GAMMA=   0.9987
  1.2537  0.7436

 Free energy of the ion-electron system (eV)
  ---------------------------------------------------
  alpha Z        PSCENC =        67.60056838
  Ewald energy   TEWEN  =     -1893.58923515
  -Hartree energ DENC   =     -1057.84214363
  -exchange      EXHF   =         0.00000000
  -V(xc)+E(xc)   XCENC  =       149.47083129
  PAW double counting   =      7257.03731844    -7217.28962309
  entropy T*S    EENTRO =        -0.00000000
  eigenvalues    EBANDS =      -279.81594315
  atomic energy  EATOM  =      2903.34697324
  Solvation  Ediel_sol  =         0.00000000
  ---------------------------------------------------
  free energy    TOTEN  =       -71.08125368 eV

  energy without entropy =      -71.08125368  energy(sigma->0) =      -71.08125368


--------------------------------------------------------------------------------------------------------




--------------------------------------- Iteration      2(   4)  ---------------------------------------


    POTLOK:  cpu time      0.8542: real time      1.7674
    SETDIJ:  cpu time      0.3701: real time      0.7794
     EDDAV:  cpu time    159.8001: real time    308.7125
       DOS:  cpu time      0.5316: real time      0.9871
    CHARGE:  cpu time      1.3271: real time      2.7287
    MIXING:  cpu time      0.4817: real time      0.9891
    --------------------------------------------
      LOOP:  cpu time    163.3649: real time    315.9642

 eigenvalue-minimisations  :  1736
 total energy-change (2. order) : 0.1317035E-02  (-0.1172945E-03)
 number of electron      48.0000006 magnetization 
 augmentation part        3.5109391 magnetization 

 Broyden mixing:
  rms(total) = 0.12187E-01    rms(broyden)= 0.12187E-01
  rms(prec ) = 0.15858E-01
  weight for this iteration     100.00

 eigenvalues of (default mixing * dielectric matrix)
  average eigenvalue GAMMA=   1.3837
  2.1692  0.9909  0.9909

 Free energy of the ion-electron system (eV)
  ---------------------------------------------------
  alpha Z        PSCENC =        67.60056838
  Ewald energy   TEWEN  =     -1893.58923515
  -Hartree energ DENC   =     -1057.91622212
  -exchange      EXHF   =         0.00000000
  -V(xc)+E(xc)   XCENC  =       149.45673325
  PAW double counting   =      7170.81410460    -7130.98531163
  entropy T*S    EENTRO =        -0.00000000
  eigenvalues    EBANDS =      -279.80754721
  atomic energy  EATOM  =      2903.34697324
  Solvation  Ediel_sol  =         0.00000000
  ---------------------------------------------------
  free energy    TOTEN  =       -71.07993664 eV

  energy without entropy =      -71.07993664  energy(sigma->0) =      -71.07993664


--------------------------------------------------------------------------------------------------------




--------------------------------------- Iteration      2(   5)  ---------------------------------------


    POTLOK:  cpu time      1.0748: real time      2.2396
    SETDIJ:  cpu time      0.3282: real time      0.6507
     EDDAV:  cpu time    171.3630: real time    325.9267
       DOS:  cpu time      0.2399: real time      0.4919
    CHARGE:  cpu time      1.4064: real time      2.8902
    MIXING:  cpu time      0.5093: real time      0.9836
    --------------------------------------------
      LOOP:  cpu time    174.9215: real time    333.1827

 eigenvalue-minimisations  :  1862
 total energy-change (2. order) : 0.2109909E-03  (-0.2870952E-04)
 number of electron      48.0000006 magnetization 
 augmentation part        3.5116887 magnetization 

 Broyden mixing:
  rms(total) = 0.42536E-02    rms(broyden)= 0.42531E-02
  rms(prec ) = 0.45573E-02
  weight for this iteration     100.00

 eigenvalues of (default mixing * dielectric matrix)
  average eigenvalue GAMMA=   1.8526
  2.9103  2.4612  1.0195  1.0195

 Free energy of the ion-electron system (eV)
  ---------------------------------------------------
  alpha Z        PSCENC =        67.60056838
  Ewald energy   TEWEN  =     -1893.58923515
  -Hartree energ DENC   =     -1058.26527324
  -exchange      EXHF   =         0.00000000
  -V(xc)+E(xc)   XCENC  =       149.46869686
  PAW double counting   =      7128.39923915    -7088.53312284
  entropy T*S    EENTRO =        -0.00000000
  eigenvalues    EBANDS =      -279.50757205
  atomic energy  EATOM  =      2903.34697324
[...]
     33      12.3402      0.00000
     34      12.7068      0.00000
     35      13.0844      0.00000
     36      13.3070      0.00000
     37      13.6567      0.00000
     38      14.5893      0.00000
     39      15.2407      0.00000
     40      15.5906      0.00000
     41      15.6320      0.00000
     42      16.2496      0.00000

 k-point    11 :       0.2000    0.2000    0.2500
  band No.  band energies     occupation 
      1     -18.2027      2.00000
      2     -17.6462      2.00000
      3     -17.0420      2.00000
      4     -16.5611      2.00000
      5     -16.5462      2.00000
      6     -16.5148      2.00000
      7      -7.8281      2.00000
      8      -6.6058      2.00000
      9      -5.4692      2.00000
     10      -4.7020      2.00000
     11      -4.3844      2.00000
     12      -4.1811      2.00000
     13      -2.3947      2.00000
     14      -2.0628      2.00000
     15      -1.8403      2.00000
     16      -1.5664      2.00000
     17      -1.2812      2.00000
     18      -0.9370      2.00000
     19      -0.7810      2.00000
     20      -0.4977      2.00000
     21      -0.1977      2.00000
     22      -0.0716      2.00000
     23       0.2786      2.00000
     24       0.5738      2.00000
     25       8.1643      0.00000
     26       9.5918      0.00000
     27       9.9555      0.00000
     28      10.3318      0.00000
     29      10.6210      0.00000
     30      10.8669      0.00000
     31      11.1969      0.00000
     32      11.9516      0.00000
     33      12.3954      0.00000
     34      12.6878      0.00000
     35      13.0057      0.00000
     36      13.2939      0.00000
     37      13.6416      0.00000
     38      14.5414      0.00000
     39      15.2174      0.00000
     40      15.6108      0.00000
     41      15.9176      0.00000
     42      16.3072      0.00000

 k-point    12 :       0.4000    0.2000    0.2500
  band No.  band energies     occupation 
      1     -18.0489      2.00000
      2     -17.6754      2.00000
      3     -17.1866      2.00000
      4     -16.5731      2.00000
      5     -16.5579      2.00000
      6     -16.5213      2.00000
      7      -7.6055      2.00000
      8      -6.5323      2.00000
      9      -5.7521      2.00000
     10      -4.6773      2.00000
     11      -4.3921      2.00000
     12      -4.0719      2.00000
     13      -2.3916      2.00000
     14      -2.1847      2.00000
     15      -1.9043      2.00000
     16      -1.3960      2.00000
     17      -1.2466      2.00000
     18      -1.1120      2.00000
     19      -0.6787      2.00000
     20      -0.5586      2.00000
     21      -0.2845      2.00000
     22       0.0385      2.00000
     23       0.2315      2.00000
     24       0.5100      2.00000
     25       8.9462      0.00000
     26       9.5229      0.00000
     27      10.0087      0.00000
     28      10.4329      0.00000
     29      10.7847      0.00000
     30      10.8971      0.00000
     31      11.2473      0.00000
     32      11.6134      0.00000
     33      12.0163      0.00000
     34      12.4651      0.00000
     35      12.7247      0.00000
     36      13.1818      0.00000
     37      13.4086      0.00000
     38      14.5711      0.00000
     39      15.0467      0.00000
     40      15.8784      0.00000
     41      15.9701      0.00000
     42      16.4738      0.00000

 k-point    13 :       0.0000    0.0000    0.5000
  band No.  band energies     occupation 
      1     -18.1422      2.00000
      2     -18.1422      2.00000
      3     -16.5263      2.00000
      4     -16.5243      2.00000
      5     -16.5243      2.00000
      6     -16.4827      2.00000
      7      -8.6857      2.00000
      8      -5.5574      2.00000
      9      -5.5574      2.00000
     10      -4.9013      2.00000
     11      -4.9013      2.00000
     12      -3.9258      2.00000
     13      -1.9582      2.00000
     14      -1.9582      2.00000
     15      -1.8214      2.00000
     16      -1.2770      2.00000
     17      -1.2770      2.00000
     18      -1.1536      2.00000
     19      -1.1536      2.00000
     20      -0.8701      2.00000
     21      -0.4654      2.00000
     22       0.5275      2.00000
     23       0.5275      2.00000
     24       0.5579      2.00000
     25       8.2597      0.00000
     26       8.2597      0.00000
     27       9.4751      0.00000
     28      10.2046      0.00000
     29      10.2046      0.00000
     30      11.0928      0.00000
     31      11.8761      0.00000
     32      11.8761      0.00000
     33      12.2076      0.00000
     34      13.2743      0.00000
     35      13.2743      0.00000
     36      14.0700      0.00000
     37      14.0700      0.00000
     38      14.3495      0.00000
     39      14.4504      0.00000
     40      15.8735      0.00000
     41      15.9293      0.00000
     42      15.9293      0.00000

 k-point    14 :       0.2000    0.0000    0.5000
  band No.  band energies     occupation 
      1     -18.1180      2.00000
      2     -18.0284      2.00000
      3     -16.7033      2.00000
      4     -16.5495      2.00000
      5     -16.5204      2.00000
      6     -16.4994      2.00000
      7      -8.3959      2.00000
      8      -5.8612      2.00000
      9      -5.6436      2.00000
     10      -4.7621      2.00000
     11      -4.6968      2.00000
     12      -4.0152      2.00000
     13      -2.1660      2.00000
     14      -2.1417      2.00000
     15      -1.7284      2.00000
     16      -1.4650      2.00000
     17      -1.3787      2.00000
     18      -0.9506      2.00000
     19      -0.8542      2.00000
     20      -0.6994      2.00000
     21      -0.3851      2.00000
     22       0.3322      2.00000
     23       0.3946      2.00000
     24       0.5413      2.00000
     25       8.4895      0.00000
     26       8.6051      0.00000
     27       9.6939      0.00000
     28      10.1713      0.00000
     29      10.3148      0.00000
     30      11.0613      0.00000
     31      11.4328      0.00000
     32      11.8264      0.00000
     33      12.4664      0.00000
     34      12.8788      0.00000
     35      12.9592      0.00000
     36      13.6996      0.00000
     37      13.9302      0.00000
     38      14.3588      0.00000
     39      15.3800      0.00000
     40      15.5747      0.00000
     41      15.8540      0.00000
     42      16.0728      0.00000

 k-point    15 :       0.4000    0.0000    0.5000
  band No.  band energies     occupation 
      1     -18.0770      2.00000
      2     -17.7410      2.00000
      3     -17.0918      2.00000
      4     -16.5829      2.00000
      5     -16.5288      2.00000
      6     -16.5183      2.00000
      7      -7.7516      2.00000
      8      -6.4484      2.00000
      9      -5.7254      2.00000
     10      -4.6174      2.00000
     11      -4.4088      2.00000
     12      -4.1907      2.00000
     13      -2.3915      2.00000
     14      -2.3713      2.00000
     15      -1.6649      2.00000
     16      -1.4375      2.00000
     17      -1.3707      2.00000
     18      -0.7925      2.00000
     19      -0.6334      2.00000
     20      -0.5002      2.00000
     21      -0.2296      2.00000
     22       0.0077      2.00000
     23       0.1153      2.00000
     24       0.4824      2.00000
     25       8.9563      0.00000
     26       9.4090      0.00000
     27       9.9957      0.00000
     28      10.2352      0.00000
     29      10.6719      0.00000
     30      10.9558      0.00000
     31      11.1048      0.00000
     32      11.6891      0.00000
     33      11.8614      0.00000
     34      12.2778      0.00000
     35      12.6332      0.00000
     36      13.2225      0.00000
     37      13.9046      0.00000
     38      14.2917      0.00000
     39      15.4695      0.00000
     40      15.8743      0.00000
     41      16.0074      0.00000
     42      16.6624      0.00000

 k-point    16 :       0.2000    0.2000    0.5000
  band No.  band energies     occupation 
      1     -18.0811      2.00000
      2     -17.8243      2.00000
      3     -16.9867      2.00000
      4     -16.5726      2.00000
      5     -16.5273      2.00000
      6     -16.5250      2.00000
      7      -7.9061      2.00000
      8      -6.2672      2.00000
      9      -5.7770      2.00000
     10      -4.5757      2.00000
     11      -4.5158      2.00000
     12      -4.1519      2.00000
     13      -2.3815      2.00000
     14      -2.2579      2.00000
     15      -1.7023      2.00000
     16      -1.5480      2.00000
     17      -1.2748      2.00000
     18      -0.9029      2.00000
     19      -0.6450      2.00000
     20      -0.4656      2.00000
     21      -0.2903      2.00000
     22       0.0811      2.00000
     23       0.2759      2.00000
     24       0.3858      2.00000
     25       8.8194      0.00000
     26       9.2290      0.00000
     27       9.9465      0.00000
     28      10.3023      0.00000
     29      10.5699      0.00000
     30      11.0333      0.00000
     31      11.0346      0.00000
     32      11.6817      0.00000
     33      12.0971      0.00000
     34      12.5057      0.00000
     35      12.6792      0.00000
     36      13.2965      0.00000
     37      13.6887      0.00000
     38      14.2917      0.00000
     39      15.4461      0.00000
     40      15.9445      0.00000
     41      16.1573      0.00000
     42      16.5004      0.00000

 k-point    17 :       0.4000    0.2000    0.5000
  band No.  band energies     occupation 
      1     -18.0561      2.00000
      2     -17.5722      2.00000
      3     -17.2846      2.00000
      4     -16.5905      2.00000
      5     -16.5366      2.00000
      6     -16.5364      2.00000
      7      -7.3655      2.00000
      8      -6.7494      2.00000
      9      -5.8464      2.00000
     10      -4.4994      2.00000
     11      -4.3875      2.00000
     12      -4.2522      2.00000
     13      -2.4772      2.00000
     14      -2.2396      2.00000
     15      -1.8655      2.00000
     16      -1.3100      2.00000
     17      -1.2902      2.00000
     18      -1.0302      2.00000
     19      -0.3627      2.00000
     20      -0.3536      2.00000
     21      -0.1523      2.00000
     22      -0.1212      2.00000
     23       0.0606      2.00000
     24       0.2910      2.00000
     25       9.0520      0.00000
     26       9.9383      0.00000
     27      10.2102      0.00000
     28      10.3081      0.00000
     29      10.5437      0.00000
     30      10.8892      0.00000
     31      11.0500      0.00000
     32      11.5878      0.00000
     33      11.9007      0.00000
     34      12.1484      0.00000
     35      12.3897      0.00000
     36      12.6449      0.00000
     37      13.8326      0.00000
     38      14.2640      0.00000
     39      15.2757      0.00000
     40      16.1613      0.00000
     41      16.4549      0.00000
     42      17.0342      0.00000


--------------------------------------------------------------------------------------------------------


 soft charge-density along one line, spin component           1
         0         1         2         3         4         5         6         7         8         9
 total charge-density along one line

 pseudopotential strength for first ion, spin component:           1
 18.819  26.259  -0.001   0.000  -0.000  -0.001   0.000  -0.001
 26.259  36.646  -0.001   0.000  -0.000  -0.001   0.000  -0.001
 -0.001  -0.001   4.223   0.000   0.000   7.873   0.000   0.000
  0.000   0.000   0.000   4.222  -0.000   0.000   7.872  -0.000
 -0.000  -0.000   0.000  -0.000   4.222   0.000  -0.000   7.872
 -0.001  -0.001   7.873   0.000   0.000  14.688   0.000   0.001
  0.000   0.000   0.000   7.872  -0.000   0.000  14.687  -0.001
 -0.001  -0.001   0.000  -0.000   7.872   0.001  -0.001  14.687
 total augmentation occupancy for first ion, spin component:           1
 13.156  -6.953  -0.046   0.000  -0.027   0.017   0.000   0.010
 -6.953   3.801   0.035   0.000   0.020  -0.012   0.000  -0.007
 -0.046   0.035   6.007   0.018   0.016  -1.986  -0.007  -0.018
  0.000   0.000   0.018   6.046  -0.031  -0.007  -1.992   0.012
 -0.027   0.020   0.016  -0.031   5.988  -0.018   0.013  -1.966
  0.017  -0.012  -1.986  -0.007  -0.018   0.675   0.003   0.008
  0.000   0.000  -0.007  -1.992   0.013   0.003   0.676  -0.005
  0.010  -0.007  -0.018   0.012  -1.966   0.008  -0.005   0.666


------------------------ aborting loop because EDIFF is reached ----------------------------------------


    CHARGE:  cpu time      0.2098: real time      0.2588
    FORLOC:  cpu time      0.0102: real time      0.0081
    FORNL :  cpu time      0.0845: real time      0.0865
    STRESS:  cpu time      0.7250: real time      0.6841
    FORCOR:  cpu time      0.1423: real time      0.1491
    FORHAR:  cpu time      0.0343: real time      0.0352
    MIXING:  cpu time      0.0059: real time      0.0060
    OFIELD:  cpu time      0.0000: real time      0.0000

  FORCE on cell =-STRESS in cart. coord.  units (eV):
  Direction    XX          YY          ZZ          XY          YZ          ZX
  --------------------------------------------------------------------------------------
  Alpha Z    65.83328    65.83328    65.83328
  Ewald    -626.98244  -626.98244  -579.91735     0.00000     0.00000     0.00000
  Hartree   359.20181   359.20182   384.70776     0.00000    -0.00001    -0.00000
  E(xc)    -224.55518  -224.55517  -224.54721    -0.00000     0.00000     0.00000
  Local    -444.73329  -444.73300  -516.55610    -0.00000     0.00001    -0.00000
  n-local   -53.14598   -53.41854   -52.57747    -0.11423     0.08678    -0.01738
  augment    27.32878    27.32835    27.23576    -0.00000    -0.00010     0.00000
  Kinetic   896.54785   897.87943   895.83948     0.48116    -0.08466    -0.11434
  Fock        0.00000     0.00000     0.00000     0.00000     0.00000     0.00000
  -------------------------------------------------------------------------------------
  Total       0.02427     0.02427     0.01815    -0.00000     0.00000     0.00000
  in kB       0.32484     0.32484     0.24287    -0.00000     0.00000     0.00000
  external pressure =        0.30 kB  Pullay stress =        0.00 kB


 VOLUME and BASIS-vectors are now :
 -----------------------------------------------------------------------------
  energy-cutoff  :      520.00
  volume of cell :      119.72
      direct lattice vectors                 reciprocal lattice vectors
     2.505871213 -4.340296258  0.000000000     0.199531403 -0.115199510 -0.000000000
     2.505871213  4.340296258 -0.000000000     0.199531403  0.115199510 -0.000000000
     0.000000000 -0.000000000  5.503836871     0.000000000  0.000000000  0.181691432

  length of vectors
     5.011742425  5.011742425  5.503836871     0.230399019  0.230399019  0.181691432


 FORCES acting on ions
    electron-ion (+dipol)            ewald-force                    non-local-force                 convergence-correction
 -----------------------------------------------------------------------------------------------
   0.649E+00 0.112E+01 0.566E-05   -.544E+00 -.942E+00 0.176E-11   -.102E+00 -.178E+00 0.189E-16   0.170E-04 0.293E-04 0.840E-07
   -.130E+01 -.780E-07 -.411E-07   0.109E+01 -.134E-12 0.178E-14   0.205E+00 -.680E-17 -.472E-17   -.339E-04 -.576E-13 0.425E-12
   0.649E+00 -.112E+01 -.574E-05   -.544E+00 0.942E+00 -.338E-11   -.102E+00 0.178E+00 -.168E-16   0.170E-04 -.293E-04 -.840E-07
   0.248E+02 -.647E+02 -.279E+02   -.329E+02 0.802E+02 0.368E+02   0.812E+01 -.155E+02 -.887E+01   0.146E-02 -.486E-03 -.149E-02
   -.684E+02 0.109E+02 -.279E+02   0.859E+02 -.116E+02 0.368E+02   -.175E+02 0.708E+00 -.887E+01   -.115E-02 -.102E-02 -.149E-02
   0.436E+02 0.538E+02 -.279E+02   -.530E+02 -.685E+02 0.368E+02   0.935E+01 0.148E+02 -.887E+01   -.310E-03 0.151E-02 -.149E-02
   0.436E+02 -.538E+02 0.279E+02   -.530E+02 0.685E+02 -.368E+02   0.935E+01 -.148E+02 0.887E+01   -.310E-03 -.151E-02 0.149E-02
   -.684E+02 -.109E+02 0.279E+02   0.859E+02 0.116E+02 -.368E+02   -.175E+02 -.708E+00 0.887E+01   -.115E-02 0.102E-02 0.149E-02
   0.248E+02 0.647E+02 0.279E+02   -.329E+02 -.802E+02 -.368E+02   0.812E+01 0.155E+02 0.887E+01   0.146E-02 0.486E-03 0.149E-02
 -----------------------------------------------------------------------------------------------
   0.285E-04 -.463E-08 -.191E-06   0.284E-13 0.000E+00 -.142E-13   -.178E-14 0.533E-14 -.355E-14   -.375E-06 -.658E-13 -.700E-12


 POSITION                                       TOTAL-FORCE (eV/Angst)
 -----------------------------------------------------------------------------------
      1.19020      2.06149      1.83461         0.003020      0.005231      0.000000
      2.63134     -0.00000      0.00000        -0.006040      0.000000      0.000000
      1.19020     -2.06149      3.66922         0.003020     -0.005231      0.000000
      2.24914      2.54064      2.97589         0.005778      0.000450     -0.007458
      3.58156      1.12216      4.81050        -0.002499     -0.005229     -0.007458
      1.68691      0.67750      1.14127        -0.003279      0.004779     -0.007458
      1.68691     -0.67750      4.36256        -0.003279     -0.004779      0.007458
      3.58156     -1.12216      0.69334        -0.002499      0.005229      0.007458
      2.24914     -2.54064      2.52795         0.005778     -0.000450      0.007458
 -----------------------------------------------------------------------------------
    total drift:                                0.000028     -0.000000     -0.000000


--------------------------------------------------------------------------------------------------------



  FREE ENERGIE OF THE ION-ELECTRON SYSTEM (eV)
  ---------------------------------------------------
  free  energy   TOTEN  =       -71.12660916 eV

  energy  without entropy=      -71.12660916  energy(sigma->0) =      -71.12660916

 d Force = 0.1087649E-03[ 0.101E-03, 0.116E-03]  d Energy = 0.1203378E-03-0.116E-04
 d Force =-0.5207502E+00[-0.520E+00,-0.522E+00]  d Ewald  =-0.8158608E+00 0.295E+00


--------------------------------------------------------------------------------------------------------


    POTLOK:  cpu time      0.1121: real time      0.1335


--------------------------------------------------------------------------------------------------------


 Quasi-Newton relaxation of ions (Broydens 2nd method)
  g(Force)  = 0.311E-04   g(Stress)= 0.808E-05

 retain information from N=  1 steps
 eigenvalues of (default step * inverse Hessian matrix)
  average eigenvalue of G=  10.0315
 eigenvalue spectrum of G is 10.0315


--------------------------------------------------------------------------------------------------------


  
 reached required accuracy - stopping structural energy minimisation
 writing wavefunctions
     LOOP+:  cpu time    112.4578: real time    126.9961
    4ORBIT:  cpu time      0.0000: real time      0.0000

 total amount of memory used by VASP MPI-rank0    46097. kBytes
=======================================================================

   base      :      30000. kBytes
   nonl-proj :       7145. kBytes
   fftplans  :       1570. kBytes
   grid      :       4774. kBytes
   one-center:         27. kBytes
   wavefun   :       2581. kBytes

  
  
 General timing and accounting informations for this job:
 ========================================================
  
                  Total CPU time used (sec):    18291.193
                            User time (sec):    17121.101
                          System time (sec):     1170.093
                         Elapsed time (sec):    34512.269
  
                   Maximum memory used (kb):   114294784.
                   Average memory used (kb):          N/A
  
                          Minor page faults:       240109
                          Major page faults:          111
                 Voluntary context switches:           84
