mesh: [     1,     1,     1 ]
nqpoint: 1      
reciprocal_lattice:
- [   0.26275709,  -0.15170288,   0.00000000 ] # a*
- [   0.26275709,   0.15170288,   0.00000000 ] # b*
- [   0.00000000,   0.00000000,   0.16030826 ] # c*
natom:   4      
lattice:
- [     1.902898233547076,    -3.295916422136603,     0.000000000000000 ] # a
- [     1.902898233547076,     3.295916422136603,     0.000000000000000 ] # b
- [     0.000000000000000,     0.000000000000000,     6.237981630000000 ] # c
points:
- symbol: Zn # 1
  coordinates: [  0.333333333333336,  0.666666666666664,  0.000311507514819 ]
  mass: 65.380000
- symbol: Zn # 2
  coordinates: [  0.666666666666664,  0.333333333333336,  0.500311507514819 ]
  mass: 65.380000
- symbol: S # 3
  coordinates: [  0.333333333333336,  0.666666666666664,  0.374688492485181 ]
  mass: 32.065000
- symbol: S # 4
  coordinates: [  0.666666666666664,  0.333333333333336,  0.874688492485181 ]
  mass: 32.065000

phonon:
- q-position: [    0.0000000,    0.0000000,    0.0000000 ]
  distance_from_gamma:  0.000000000
  weight: 1    
  band:
  - # 1
    frequency:     0.0000001274
    eigenvector:
    - # atom 1
      - [  0.01070449119591,  0.00000000000000 ]
      - [ -0.04311859622331,  0.00000000000000 ]
      - [  0.57749241728852,  0.00000000000000 ]
    - # atom 2
      - [  0.01070449119591,  0.00000000000000 ]
      - [ -0.04311859622331,  0.00000000000000 ]
      - [  0.57749241728852,  0.00000000000000 ]
    - # atom 3
      - [  0.00749651118507,  0.00000000000000 ]
      - [ -0.03019658131869,  0.00000000000000 ]
      - [  0.40442635584114,  0.00000000000000 ]
    - # atom 4
      - [  0.00749651118507,  0.00000000000000 ]
      - [ -0.03019658131869,  0.00000000000000 ]
      - [  0.40442635584114,  0.00000000000000 ]
  - # 2
    frequency:     0.0000003058
    eigenvector:
    - # atom 1
      - [ -0.57625667649332,  0.00000000000000 ]
      - [  0.05637201355798,  0.00000000000000 ]
      - [  0.01489061389132,  0.00000000000000 ]
    - # atom 2
      - [ -0.57625667649332,  0.00000000000000 ]
      - [  0.05637201355798,  0.00000000000000 ]
      - [  0.01489061389132,  0.00000000000000 ]
    - # atom 3
      - [ -0.40356094855335,  0.00000000000000 ]
      - [  0.03947814262519,  0.00000000000000 ]
      - [  0.01042811391460,  0.00000000000000 ]
    - # atom 4
      - [ -0.40356094855335,  0.00000000000000 ]
      - [  0.03947814262519,  0.00000000000000 ]
      - [  0.01042811391460,  0.00000000000000 ]
  - # 3
    frequency:     0.0000003825
    eigenvector:
    - # atom 1
      - [  0.05731446730868,  0.00000000000000 ]
      - [  0.57483412759241,  0.00000000000000 ]
      - [  0.04185772437641,  0.00000000000000 ]
    - # atom 2
      - [  0.05731446730868,  0.00000000000000 ]
      - [  0.57483412759240,  0.00000000000000 ]
      - [  0.04185772437641,  0.00000000000000 ]
    - # atom 3
      - [  0.04013815672154,  0.00000000000000 ]
      - [  0.40256471682670,  0.00000000000000 ]
      - [  0.02931357438915,  0.00000000000000 ]
    - # atom 4
      - [  0.04013815672154,  0.00000000000000 ]
      - [  0.40256471682670,  0.00000000000000 ]
      - [  0.02931357438915,  0.00000000000000 ]
  - # 4
    frequency:     2.0198779813
    eigenvector:
    - # atom 1
      - [  0.42109512459550, -0.00000000000000 ]
      - [ -0.44184128314650,  0.00000000000000 ]
      - [  0.00000000000000,  0.00000000000000 ]
    - # atom 2
      - [ -0.42109512459550,  0.00000000000000 ]
      - [  0.44184128314650,  0.00000000000000 ]
      - [  0.00000000000000,  0.00000000000000 ]
    - # atom 3
      - [ -0.24630299117197,  0.00000000000000 ]
      - [  0.25843763868504,  0.00000000000000 ]
      - [  0.00000000000000,  0.00000000000000 ]
    - # atom 4
      - [  0.24630299117197,  0.00000000000000 ]
      - [ -0.25843763868503,  0.00000000000000 ]
      - [  0.00000000000000,  0.00000000000000 ]
  - # 5
    frequency:     2.0198779813
    eigenvector:
    - # atom 1
      - [ -0.44184128314650,  0.00000000000000 ]
      - [ -0.42109512459550,  0.00000000000000 ]
      - [  0.00000000000000,  0.00000000000000 ]
    - # atom 2
      - [  0.44184128314650,  0.00000000000000 ]
      - [  0.42109512459550,  0.00000000000000 ]
      - [ -0.00000000000000,  0.00000000000000 ]
    - # atom 3
      - [  0.25843763868504,  0.00000000000000 ]
      - [  0.24630299117197,  0.00000000000000 ]
      - [  0.00000000000000,  0.00000000000000 ]
    - # atom 4
      - [ -0.25843763868503,  0.00000000000000 ]
      - [ -0.24630299117196,  0.00000000000000 ]
      - [ -0.00000000000000,  0.00000000000000 ]
  - # 6
    frequency:     5.8260963754
    eigenvector:
    - # atom 1
      - [  0.00000000000000,  0.00000000000000 ]
      - [ -0.00000000000000,  0.00000000000000 ]
      - [  0.69315001629979,  0.00000000000000 ]
    - # atom 2
      - [  0.00000000000000,  0.00000000000000 ]
      - [ -0.00000000000000,  0.00000000000000 ]
      - [ -0.69315001629979,  0.00000000000000 ]
    - # atom 3
      - [ -0.00000000000000,  0.00000000000000 ]
      - [ -0.00000000000000,  0.00000000000000 ]
      - [  0.13979647672099,  0.00000000000000 ]
    - # atom 4
      - [ -0.00000000000000,  0.00000000000000 ]
      - [ -0.00000000000000,  0.00000000000000 ]
      - [ -0.13979647672099,  0.00000000000000 ]
  - # 7
    frequency:     8.2758748018
    eigenvector:
    - # atom 1
      - [  0.00000000000000,  0.00000000000000 ]
      - [  0.00000000000000,  0.00000000000000 ]
      - [  0.40562138565691,  0.00000000000000 ]
    - # atom 2
      - [  0.00000000000000,  0.00000000000000 ]
      - [  0.00000000000000,  0.00000000000000 ]
      - [  0.40562138565691,  0.00000000000000 ]
    - # atom 3
      - [ -0.00000000000000,  0.00000000000000 ]
      - [ -0.00000000000000,  0.00000000000000 ]
      - [ -0.57919883589124,  0.00000000000000 ]
    - # atom 4
      - [ -0.00000000000000,  0.00000000000000 ]
      - [ -0.00000000000000,  0.00000000000000 ]
      - [ -0.57919883589124,  0.00000000000000 ]
  - # 8
    frequency:     8.4004011654
    eigenvector:
    - # atom 1
      - [ -0.05282085532185,  0.00000000000000 ]
      - [ -0.40216745982899,  0.00000000000000 ]
      - [  0.00000000000000,  0.00000000000000 ]
    - # atom 2
      - [ -0.05282085532185,  0.00000000000000 ]
      - [ -0.40216745982899,  0.00000000000000 ]
      - [  0.00000000000000,  0.00000000000000 ]
    - # atom 3
      - [  0.07542446970257,  0.00000000000000 ]
      - [  0.57426687251474,  0.00000000000000 ]
      - [ -0.00000000000000,  0.00000000000000 ]
    - # atom 4
      - [  0.07542446970257,  0.00000000000000 ]
      - [  0.57426687251474,  0.00000000000000 ]
      - [ -0.00000000000000,  0.00000000000000 ]
  - # 9
    frequency:     8.4004011654
    eigenvector:
    - # atom 1
      - [  0.40216745982899,  0.00000000000000 ]
      - [ -0.05282085532185,  0.00000000000000 ]
      - [ -0.00000000000000,  0.00000000000000 ]
    - # atom 2
      - [  0.40216745982899,  0.00000000000000 ]
      - [ -0.05282085532185,  0.00000000000000 ]
      - [ -0.00000000000000,  0.00000000000000 ]
    - # atom 3
      - [ -0.57426687251474,  0.00000000000000 ]
      - [  0.07542446970257,  0.00000000000000 ]
      - [  0.00000000000000,  0.00000000000000 ]
    - # atom 4
      - [ -0.57426687251474,  0.00000000000000 ]
      - [  0.07542446970257,  0.00000000000000 ]
      - [  0.00000000000000,  0.00000000000000 ]
  - # 10
    frequency:     8.5988244962
    eigenvector:
    - # atom 1
      - [ -0.32498536159709,  0.00000000000000 ]
      - [ -0.14778258116896,  0.00000000000000 ]
      - [  0.00000000000000,  0.00000000000000 ]
    - # atom 2
      - [  0.32498536159710,  0.00000000000000 ]
      - [  0.14778258116896,  0.00000000000000 ]
      - [  0.00000000000000,  0.00000000000000 ]
    - # atom 3
      - [ -0.55561546647193,  0.00000000000000 ]
      - [ -0.25265841934879,  0.00000000000000 ]
      - [ -0.00000000000000,  0.00000000000000 ]
    - # atom 4
      - [  0.55561546647193,  0.00000000000000 ]
      - [  0.25265841934878,  0.00000000000000 ]
      - [  0.00000000000000,  0.00000000000000 ]
  - # 11
    frequency:     8.5988244962
    eigenvector:
    - # atom 1
      - [ -0.14778258116896,  0.00000000000000 ]
      - [  0.32498536159710,  0.00000000000000 ]
      - [ -0.00000000000000,  0.00000000000000 ]
    - # atom 2
      - [  0.14778258116896,  0.00000000000000 ]
      - [ -0.32498536159710,  0.00000000000000 ]
      - [ -0.00000000000000,  0.00000000000000 ]
    - # atom 3
      - [ -0.25265841934878,  0.00000000000000 ]
      - [  0.55561546647193,  0.00000000000000 ]
      - [  0.00000000000000,  0.00000000000000 ]
    - # atom 4
      - [  0.25265841934879,  0.00000000000000 ]
      - [ -0.55561546647193,  0.00000000000000 ]
      - [  0.00000000000000,  0.00000000000000 ]
  - # 12
    frequency:    10.1221923130
    eigenvector:
    - # atom 1
      - [ -0.00000000000000,  0.00000000000000 ]
      - [  0.00000000000000,  0.00000000000000 ]
      - [  0.13979647672099,  0.00000000000000 ]
    - # atom 2
      - [ -0.00000000000000,  0.00000000000000 ]
      - [ -0.00000000000000,  0.00000000000000 ]
      - [ -0.13979647672099,  0.00000000000000 ]
    - # atom 3
      - [  0.00000000000000,  0.00000000000000 ]
      - [ -0.00000000000000,  0.00000000000000 ]
      - [ -0.69315001629979,  0.00000000000000 ]
    - # atom 4
      - [ -0.00000000000000,  0.00000000000000 ]
      - [ -0.00000000000000,  0.00000000000000 ]
      - [  0.69315001629979,  0.00000000000000 ]
