phono3py:
  version: "3.21.0"
  frequency_unit_conversion_factor: 15.633302
  symmetry_tolerance: 1.00000e-05
  configuration:
    nac: ".false."
    mesh_numbers: "48 48 48"
    grid_points: "0"
    bterta: ".true."
    write_gamma: ".true."

physical_unit:
  atomic_mass: "AMU"
  length: "angstrom"

space_group:
  type: "P6_3mc"
  number: 186
  Hall_symbol: "P 6c -2c"

supercell_matrix:
- [   2,   0,   0 ]
- [   0,   2,   0 ]
- [   0,   0,   1 ]

primitive_cell:
  lattice:
  - [     1.902898233547076,    -3.295916422136603,     0.000000000000000 ] # a
  - [     1.902898233547076,     3.295916422136603,     0.000000000000000 ] # b
  - [     0.000000000000000,     0.000000000000000,     6.237981630000000 ] # c
  points:
  - symbol: Zn # 1
    coordinates: [  0.333333333333336,  0.666666666666664,  0.000311507514819 ]
    mass: 65.380000
  - symbol: Zn # 2
    coordinates: [  0.666666666666664,  0.333333333333336,  0.500311507514819 ]
    mass: 65.380000
  - symbol: S # 3
    coordinates: [  0.333333333333336,  0.666666666666664,  0.374688492485181 ]
    mass: 32.065000
  - symbol: S # 4
    coordinates: [  0.666666666666664,  0.333333333333336,  0.874688492485181 ]
    mass: 32.065000
  reciprocal_lattice: # without 2pi
  - [     0.262757088731950,    -0.151702875910874,     0.000000000000000 ] # a*
  - [     0.262757088731950,     0.151702875910874,     0.000000000000000 ] # b*
  - [     0.000000000000000,     0.000000000000000,     0.160308263043089 ] # c*

unit_cell:
  lattice:
  - [     1.902898233547076,    -3.295916422136603,     0.000000000000000 ] # a
  - [     1.902898233547076,     3.295916422136603,     0.000000000000000 ] # b
  - [     0.000000000000000,     0.000000000000000,     6.237981630000000 ] # c
  points:
  - symbol: Zn # 1
    coordinates: [  0.333333333333336,  0.666666666666664,  0.000311507514819 ]
    mass: 65.380000
    reduced_to: 1
  - symbol: Zn # 2
    coordinates: [  0.666666666666664,  0.333333333333336,  0.500311507514819 ]
    mass: 65.380000
    reduced_to: 2
  - symbol: S # 3
    coordinates: [  0.333333333333336,  0.666666666666664,  0.374688492485181 ]
    mass: 32.065000
    reduced_to: 3
  - symbol: S # 4
    coordinates: [  0.666666666666664,  0.333333333333336,  0.874688492485181 ]
    mass: 32.065000
    reduced_to: 4

supercell:
  lattice:
  - [     3.805796467094152,    -6.591832844273206,     0.000000000000000 ] # a
  - [     3.805796467094152,     6.591832844273206,     0.000000000000000 ] # b
  - [     0.000000000000000,     0.000000000000000,     6.237981630000000 ] # c
  points:
  - symbol: Zn # 1
    coordinates: [  0.166666666666668,  0.333333333333332,  0.000311507514819 ]
    mass: 65.380000
    reduced_to: 1
  - symbol: Zn # 2
    coordinates: [  0.666666666666668,  0.333333333333332,  0.000311507514819 ]
    mass: 65.380000
    reduced_to: 1
  - symbol: Zn # 3
    coordinates: [  0.166666666666668,  0.833333333333332,  0.000311507514819 ]
    mass: 65.380000
    reduced_to: 1
  - symbol: Zn # 4
    coordinates: [  0.666666666666668,  0.833333333333332,  0.000311507514819 ]
    mass: 65.380000
    reduced_to: 1
  - symbol: Zn # 5
    coordinates: [  0.333333333333332,  0.166666666666668,  0.500311507514819 ]
    mass: 65.380000
    reduced_to: 5
  - symbol: Zn # 6
    coordinates: [  0.833333333333332,  0.166666666666668,  0.500311507514819 ]
    mass: 65.380000
    reduced_to: 5
  - symbol: Zn # 7
    coordinates: [  0.333333333333332,  0.666666666666668,  0.500311507514819 ]
    mass: 65.380000
    reduced_to: 5
  - symbol: Zn # 8
    coordinates: [  0.833333333333332,  0.666666666666668,  0.500311507514819 ]
    mass: 65.380000
    reduced_to: 5
  - symbol: S # 9
    coordinates: [  0.166666666666668,  0.333333333333332,  0.374688492485181 ]
    mass: 32.065000
    reduced_to: 9
  - symbol: S # 10
    coordinates: [  0.666666666666668,  0.333333333333332,  0.374688492485181 ]
    mass: 32.065000
    reduced_to: 9
  - symbol: S # 11
    coordinates: [  0.166666666666668,  0.833333333333332,  0.374688492485181 ]
    mass: 32.065000
    reduced_to: 9
  - symbol: S # 12
    coordinates: [  0.666666666666668,  0.833333333333332,  0.374688492485181 ]
    mass: 32.065000
    reduced_to: 9
  - symbol: S # 13
    coordinates: [  0.333333333333332,  0.166666666666668,  0.874688492485181 ]
    mass: 32.065000
    reduced_to: 13
  - symbol: S # 14
    coordinates: [  0.833333333333332,  0.166666666666668,  0.874688492485181 ]
    mass: 32.065000
    reduced_to: 13
  - symbol: S # 15
    coordinates: [  0.333333333333332,  0.666666666666668,  0.874688492485181 ]
    mass: 32.065000
    reduced_to: 13
  - symbol: S # 16
    coordinates: [  0.833333333333332,  0.666666666666668,  0.874688492485181 ]
    mass: 32.065000
    reduced_to: 13

phonon_supercell_matrix:
- [   3,   0,   0 ]
- [   0,   3,   0 ]
- [   0,   0,   2 ]

phonon_primitive_cell:
  lattice:
  - [     1.902898233547076,    -3.295916422136603,     0.000000000000000 ] # a
  - [     1.902898233547076,     3.295916422136603,     0.000000000000000 ] # b
  - [     0.000000000000000,     0.000000000000000,     6.237981630000000 ] # c
  points:
  - symbol: Zn # 1
    coordinates: [  0.333333333333336,  0.666666666666664,  0.000311507514819 ]
    mass: 65.380000
  - symbol: Zn # 2
    coordinates: [  0.666666666666664,  0.333333333333336,  0.500311507514819 ]
    mass: 65.380000
  - symbol: S # 3
    coordinates: [  0.333333333333336,  0.666666666666664,  0.374688492485181 ]
    mass: 32.065000
  - symbol: S # 4
    coordinates: [  0.666666666666664,  0.333333333333336,  0.874688492485181 ]
    mass: 32.065000
  reciprocal_lattice: # without 2pi
  - [     0.262757088731950,    -0.151702875910874,     0.000000000000000 ] # a*
  - [     0.262757088731950,     0.151702875910874,     0.000000000000000 ] # b*
  - [     0.000000000000000,     0.000000000000000,     0.160308263043089 ] # c*

phonon_supercell:
  lattice:
  - [     5.708694700641228,    -9.887749266409809,     0.000000000000000 ] # a
  - [     5.708694700641228,     9.887749266409809,     0.000000000000000 ] # b
  - [     0.000000000000000,     0.000000000000000,    12.475963260000000 ] # c
  points:
  - symbol: Zn # 1
    coordinates: [  0.111111111111112,  0.222222222222221,  0.000155753757410 ]
    mass: 65.380000
    reduced_to: 1
  - symbol: Zn # 2
    coordinates: [  0.444444444444445,  0.222222222222221,  0.000155753757410 ]
    mass: 65.380000
    reduced_to: 1
  - symbol: Zn # 3
    coordinates: [  0.777777777777779,  0.222222222222221,  0.000155753757410 ]
    mass: 65.380000
    reduced_to: 1
  - symbol: Zn # 4
    coordinates: [  0.111111111111112,  0.555555555555555,  0.000155753757410 ]
    mass: 65.380000
    reduced_to: 1
  - symbol: Zn # 5
    coordinates: [  0.444444444444445,  0.555555555555555,  0.000155753757410 ]
    mass: 65.380000
    reduced_to: 1
  - symbol: Zn # 6
    coordinates: [  0.777777777777779,  0.555555555555555,  0.000155753757410 ]
    mass: 65.380000
    reduced_to: 1
  - symbol: Zn # 7
    coordinates: [  0.111111111111112,  0.888888888888888,  0.000155753757410 ]
    mass: 65.380000
    reduced_to: 1
  - symbol: Zn # 8
    coordinates: [  0.444444444444445,  0.888888888888888,  0.000155753757410 ]
    mass: 65.380000
    reduced_to: 1
  - symbol: Zn # 9
    coordinates: [  0.777777777777779,  0.888888888888888,  0.000155753757410 ]
    mass: 65.380000
    reduced_to: 1
  - symbol: Zn # 10
    coordinates: [  0.111111111111112,  0.222222222222221,  0.500155753757410 ]
    mass: 65.380000
    reduced_to: 1
  - symbol: Zn # 11
    coordinates: [  0.444444444444445,  0.222222222222221,  0.500155753757410 ]
    mass: 65.380000
    reduced_to: 1
  - symbol: Zn # 12
    coordinates: [  0.777777777777779,  0.222222222222221,  0.500155753757410 ]
    mass: 65.380000
    reduced_to: 1
  - symbol: Zn # 13
    coordinates: [  0.111111111111112,  0.555555555555555,  0.500155753757410 ]
    mass: 65.380000
    reduced_to: 1
  - symbol: Zn # 14
    coordinates: [  0.444444444444445,  0.555555555555555,  0.500155753757410 ]
    mass: 65.380000
    reduced_to: 1
  - symbol: Zn # 15
    coordinates: [  0.777777777777779,  0.555555555555555,  0.500155753757410 ]
    mass: 65.380000
    reduced_to: 1
  - symbol: Zn # 16
    coordinates: [  0.111111111111112,  0.888888888888888,  0.500155753757410 ]
    mass: 65.380000
    reduced_to: 1
  - symbol: Zn # 17
    coordinates: [  0.444444444444445,  0.888888888888888,  0.500155753757410 ]
    mass: 65.380000
    reduced_to: 1
  - symbol: Zn # 18
    coordinates: [  0.777777777777779,  0.888888888888888,  0.500155753757410 ]
    mass: 65.380000
    reduced_to: 1
  - symbol: Zn # 19
    coordinates: [  0.222222222222221,  0.111111111111112,  0.250155753757410 ]
    mass: 65.380000
    reduced_to: 19
  - symbol: Zn # 20
    coordinates: [  0.555555555555555,  0.111111111111112,  0.250155753757410 ]
    mass: 65.380000
    reduced_to: 19
  - symbol: Zn # 21
    coordinates: [  0.888888888888888,  0.111111111111112,  0.250155753757410 ]
    mass: 65.380000
    reduced_to: 19
  - symbol: Zn # 22
    coordinates: [  0.222222222222221,  0.444444444444445,  0.250155753757410 ]
    mass: 65.380000
    reduced_to: 19
  - symbol: Zn # 23
    coordinates: [  0.555555555555555,  0.444444444444445,  0.250155753757410 ]
    mass: 65.380000
    reduced_to: 19
  - symbol: Zn # 24
    coordinates: [  0.888888888888888,  0.444444444444445,  0.250155753757410 ]
    mass: 65.380000
    reduced_to: 19
  - symbol: Zn # 25
    coordinates: [  0.222222222222221,  0.777777777777779,  0.250155753757410 ]
    mass: 65.380000
    reduced_to: 19
  - symbol: Zn # 26
    coordinates: [  0.555555555555555,  0.777777777777779,  0.250155753757410 ]
    mass: 65.380000
    reduced_to: 19
  - symbol: Zn # 27
    coordinates: [  0.888888888888888,  0.777777777777779,  0.250155753757410 ]
    mass: 65.380000
    reduced_to: 19
  - symbol: Zn # 28
    coordinates: [  0.222222222222221,  0.111111111111112,  0.750155753757410 ]
    mass: 65.380000
    reduced_to: 19
  - symbol: Zn # 29
    coordinates: [  0.555555555555555,  0.111111111111112,  0.750155753757410 ]
    mass: 65.380000
    reduced_to: 19
  - symbol: Zn # 30
    coordinates: [  0.888888888888888,  0.111111111111112,  0.750155753757410 ]
    mass: 65.380000
    reduced_to: 19
  - symbol: Zn # 31
    coordinates: [  0.222222222222221,  0.444444444444445,  0.750155753757410 ]
    mass: 65.380000
    reduced_to: 19
  - symbol: Zn # 32
    coordinates: [  0.555555555555555,  0.444444444444445,  0.750155753757410 ]
    mass: 65.380000
    reduced_to: 19
  - symbol: Zn # 33
    coordinates: [  0.888888888888888,  0.444444444444445,  0.750155753757410 ]
    mass: 65.380000
    reduced_to: 19
  - symbol: Zn # 34
    coordinates: [  0.222222222222221,  0.777777777777779,  0.750155753757410 ]
    mass: 65.380000
    reduced_to: 19
  - symbol: Zn # 35
    coordinates: [  0.555555555555555,  0.777777777777779,  0.750155753757410 ]
    mass: 65.380000
    reduced_to: 19
  - symbol: Zn # 36
    coordinates: [  0.888888888888888,  0.777777777777779,  0.750155753757410 ]
    mass: 65.380000
    reduced_to: 19
  - symbol: S # 37
    coordinates: [  0.111111111111112,  0.222222222222221,  0.187344246242590 ]
    mass: 32.065000
    reduced_to: 37
  - symbol: S # 38
    coordinates: [  0.444444444444445,  0.222222222222221,  0.187344246242590 ]
    mass: 32.065000
    reduced_to: 37
  - symbol: S # 39
    coordinates: [  0.777777777777779,  0.222222222222221,  0.187344246242590 ]
    mass: 32.065000
    reduced_to: 37
  - symbol: S # 40
    coordinates: [  0.111111111111112,  0.555555555555555,  0.187344246242590 ]
    mass: 32.065000
    reduced_to: 37
  - symbol: S # 41
    coordinates: [  0.444444444444445,  0.555555555555555,  0.187344246242590 ]
    mass: 32.065000
    reduced_to: 37
  - symbol: S # 42
    coordinates: [  0.777777777777779,  0.555555555555555,  0.187344246242590 ]
    mass: 32.065000
    reduced_to: 37
  - symbol: S # 43
    coordinates: [  0.111111111111112,  0.888888888888888,  0.187344246242590 ]
    mass: 32.065000
    reduced_to: 37
  - symbol: S # 44
    coordinates: [  0.444444444444445,  0.888888888888888,  0.187344246242590 ]
    mass: 32.065000
    reduced_to: 37
  - symbol: S # 45
    coordinates: [  0.777777777777779,  0.888888888888888,  0.187344246242590 ]
    mass: 32.065000
    reduced_to: 37
  - symbol: S # 46
    coordinates: [  0.111111111111112,  0.222222222222221,  0.687344246242590 ]
    mass: 32.065000
    reduced_to: 37
  - symbol: S # 47
    coordinates: [  0.444444444444445,  0.222222222222221,  0.687344246242590 ]
    mass: 32.065000
    reduced_to: 37
  - symbol: S # 48
    coordinates: [  0.777777777777779,  0.222222222222221,  0.687344246242590 ]
    mass: 32.065000
    reduced_to: 37
  - symbol: S # 49
    coordinates: [  0.111111111111112,  0.555555555555555,  0.687344246242590 ]
    mass: 32.065000
    reduced_to: 37
  - symbol: S # 50
    coordinates: [  0.444444444444445,  0.555555555555555,  0.687344246242590 ]
    mass: 32.065000
    reduced_to: 37
  - symbol: S # 51
    coordinates: [  0.777777777777779,  0.555555555555555,  0.687344246242590 ]
    mass: 32.065000
    reduced_to: 37
  - symbol: S # 52
    coordinates: [  0.111111111111112,  0.888888888888888,  0.687344246242590 ]
    mass: 32.065000
    reduced_to: 37
  - symbol: S # 53
    coordinates: [  0.444444444444445,  0.888888888888888,  0.687344246242590 ]
    mass: 32.065000
    reduced_to: 37
  - symbol: S # 54
    coordinates: [  0.777777777777779,  0.888888888888888,  0.687344246242590 ]
    mass: 32.065000
    reduced_to: 37
  - symbol: S # 55
    coordinates: [  0.222222222222221,  0.111111111111112,  0.437344246242590 ]
    mass: 32.065000
    reduced_to: 55
  - symbol: S # 56
    coordinates: [  0.555555555555555,  0.111111111111112,  0.437344246242590 ]
    mass: 32.065000
    reduced_to: 55
  - symbol: S # 57
    coordinates: [  0.888888888888888,  0.111111111111112,  0.437344246242590 ]
    mass: 32.065000
    reduced_to: 55
  - symbol: S # 58
    coordinates: [  0.222222222222221,  0.444444444444445,  0.437344246242590 ]
    mass: 32.065000
    reduced_to: 55
  - symbol: S # 59
    coordinates: [  0.555555555555555,  0.444444444444445,  0.437344246242590 ]
    mass: 32.065000
    reduced_to: 55
  - symbol: S # 60
    coordinates: [  0.888888888888888,  0.444444444444445,  0.437344246242590 ]
    mass: 32.065000
    reduced_to: 55
  - symbol: S # 61
    coordinates: [  0.222222222222221,  0.777777777777779,  0.437344246242590 ]
    mass: 32.065000
    reduced_to: 55
  - symbol: S # 62
    coordinates: [  0.555555555555555,  0.777777777777779,  0.437344246242590 ]
    mass: 32.065000
    reduced_to: 55
  - symbol: S # 63
    coordinates: [  0.888888888888888,  0.777777777777779,  0.437344246242590 ]
    mass: 32.065000
    reduced_to: 55
  - symbol: S # 64
    coordinates: [  0.222222222222221,  0.111111111111112,  0.937344246242590 ]
    mass: 32.065000
    reduced_to: 55
  - symbol: S # 65
    coordinates: [  0.555555555555555,  0.111111111111112,  0.937344246242590 ]
    mass: 32.065000
    reduced_to: 55
  - symbol: S # 66
    coordinates: [  0.888888888888888,  0.111111111111112,  0.937344246242590 ]
    mass: 32.065000
    reduced_to: 55
  - symbol: S # 67
    coordinates: [  0.222222222222221,  0.444444444444445,  0.937344246242590 ]
    mass: 32.065000
    reduced_to: 55
  - symbol: S # 68
    coordinates: [  0.555555555555555,  0.444444444444445,  0.937344246242590 ]
    mass: 32.065000
    reduced_to: 55
  - symbol: S # 69
    coordinates: [  0.888888888888888,  0.444444444444445,  0.937344246242590 ]
    mass: 32.065000
    reduced_to: 55
  - symbol: S # 70
    coordinates: [  0.222222222222221,  0.777777777777779,  0.937344246242590 ]
    mass: 32.065000
    reduced_to: 55
  - symbol: S # 71
    coordinates: [  0.555555555555555,  0.777777777777779,  0.937344246242590 ]
    mass: 32.065000
    reduced_to: 55
  - symbol: S # 72
    coordinates: [  0.888888888888888,  0.777777777777779,  0.937344246242590 ]
    mass: 32.065000
    reduced_to: 55
