nqpoint: 255    
npath: 5      
segment_nqpoint:
- 51
- 51
- 51
- 51
- 51
labels:
- [ '$Gamma$', 'A' ]
- [ 'A', 'H' ]
- [ 'H', 'K' ]
- [ 'K', 'L' ]
- [ 'L', 'M' ]
reciprocal_lattice:
- [   0.26275709,  -0.15170288,   0.00000000 ] # a*
- [   0.26275709,   0.15170288,   0.00000000 ] # b*
- [   0.00000000,   0.00000000,   0.16030826 ] # c*
natom: 4      
lattice:
- [     1.902898233547076,    -3.295916422136603,     0.000000000000000 ] # a
- [     1.902898233547076,     3.295916422136603,     0.000000000000000 ] # b
- [     0.000000000000000,     0.000000000000000,     6.237981630000000 ] # c
points:
- symbol: Zn # 1
  coordinates: [  0.333333333333336,  0.666666666666664,  0.000311507514819 ]
  mass: 65.380000
- symbol: Zn # 2
  coordinates: [  0.666666666666664,  0.333333333333336,  0.500311507514819 ]
  mass: 65.380000
- symbol: S # 3
  coordinates: [  0.333333333333336,  0.666666666666664,  0.374688492485181 ]
  mass: 32.065000
- symbol: S # 4
  coordinates: [  0.666666666666664,  0.333333333333336,  0.874688492485181 ]
  mass: 32.065000

phonon:
- q-position: [    0.0000000,    0.0000000,    0.0000000 ]
  distance:    0.0000000
  band:
  - # 1
    frequency:   -0.0000002734
  - # 2
    frequency:    0.0000003389
  - # 3
    frequency:    0.0000003907
  - # 4
    frequency:    2.0522618406
  - # 5
    frequency:    2.0522618406
  - # 6
    frequency:    5.7919339697
  - # 7
    frequency:    8.4040772857
  - # 8
    frequency:    8.4040772857
  - # 9
    frequency:    8.5959786681
  - # 10
    frequency:    8.5959786681
  - # 11
    frequency:   10.1194724845
  - # 12
    frequency:   10.2227495539

- q-position: [    0.0000000,    0.0000000,    0.0100000 ]
  distance:    0.0016031
  band:
  - # 1
    frequency:    0.0418944034
  - # 2
    frequency:    0.0418944034
  - # 3
    frequency:    0.0955798542
  - # 4
    frequency:    2.0521833573
  - # 5
    frequency:    2.0521833573
  - # 6
    frequency:    5.7913189041
  - # 7
    frequency:    8.4040960548
  - # 8
    frequency:    8.4040960548
  - # 9
    frequency:    8.5959033235
  - # 10
    frequency:    8.5959033235
  - # 11
    frequency:   10.1194625093
  - # 12
    frequency:   10.2227033124

- q-position: [    0.0000000,    0.0000000,    0.0200000 ]
  distance:    0.0032062
  band:
  - # 1
    frequency:    0.0837662068
  - # 2
    frequency:    0.0837662068
  - # 3
    frequency:    0.1911310897
  - # 4
    frequency:    2.0519474644
  - # 5
    frequency:    2.0519474644
  - # 6
    frequency:    5.7894735275
  - # 7
    frequency:    8.4041524256
  - # 8
    frequency:    8.4041524256
  - # 9
    frequency:    8.5956774409
  - # 10
    frequency:    8.5956774409
  - # 11
    frequency:   10.1194327564
  - # 12
    frequency:   10.2225646642

- q-position: [    0.0000000,    0.0000000,    0.0300000 ]
  distance:    0.0048092
  band:
  - # 1
    frequency:    0.1255928336
  - # 2
    frequency:    0.1255928336
  - # 3
    frequency:    0.2866251002
  - # 4
    frequency:    2.0515528343
  - # 5
    frequency:    2.0515528343
  - # 6
    frequency:    5.7863973012
  - # 7
    frequency:    8.4042465886
  - # 8
    frequency:    8.4042465886
  - # 9
    frequency:    8.5953014740
  - # 10
    frequency:    8.5953014740
  - # 11
    frequency:   10.1193837427
  - # 12
    frequency:   10.2223338371

- q-position: [    0.0000000,    0.0000000,    0.0400000 ]
  distance:    0.0064123
  band:
  - # 1
    frequency:    0.1673517535
  - # 2
    frequency:    0.1673517535
  - # 3
    frequency:    0.3820333041
  - # 4
    frequency:    2.0509972599
  - # 5
    frequency:    2.0509972599
  - # 6
    frequency:    5.7820893336
  - # 7
    frequency:    8.4043788597
  - # 8
    frequency:    8.4043788597
  - # 9
    frequency:    8.5947761777
  - # 10
    frequency:    8.5947761777
  - # 11
    frequency:   10.1193163250
  - # 12
    frequency:   10.2220112113

- q-position: [    0.0000000,    0.0000000,    0.0500000 ]
  distance:    0.0080154
  band:
  - # 1
    frequency:    0.2090205063
  - # 2
    frequency:    0.2090205063
  - # 3
    frequency:    0.4773271568
  - # 4
    frequency:    2.0502776633
  - # 5
    frequency:    2.0502776633
  - # 6
    frequency:    5.7765483882
  - # 7
    frequency:    8.4045496792
  - # 8
    frequency:    8.4045496792
  - # 9
    frequency:    8.5941026063
  - # 10
    frequency:    8.5941026063
  - # 11
    frequency:   10.1192316936
  - # 12
    frequency:   10.2215973185

- q-position: [    0.0000000,    0.0000000,    0.0600000 ]
  distance:    0.0096185
  band:
  - # 1
    frequency:    0.2505767249
  - # 2
    frequency:    0.2505767249
  - # 3
    frequency:    0.5724781633
  - # 4
    frequency:    2.0493901067
  - # 5
    frequency:    2.0493901067
  - # 6
    frequency:    5.7697728958
  - # 7
    frequency:    8.4047596088
  - # 8
    frequency:    8.4047596088
  - # 9
    frequency:    8.5932821105
  - # 10
    frequency:    8.5932821105
  - # 11
    frequency:   10.1191313629
  - # 12
    frequency:   10.2210928417

- q-position: [    0.0000000,    0.0000000,    0.0700000 ]
  distance:    0.0112216
  band:
  - # 1
    frequency:    0.2919981585
  - # 2
    frequency:    0.2919981585
  - # 3
    frequency:    0.6674578903
  - # 4
    frequency:    2.0483298080
  - # 5
    frequency:    2.0483298080
  - # 6
    frequency:    5.7617609698
  - # 7
    frequency:    8.4050093292
  - # 8
    frequency:    8.4050093292
  - # 9
    frequency:    8.5923163342
  - # 10
    frequency:    8.5923163342
  - # 11
    frequency:   10.1190171593
  - # 12
    frequency:   10.2204986152

- q-position: [    0.0000000,    0.0000000,    0.0800000 ]
  distance:    0.0128247
  band:
  - # 1
    frequency:    0.3332626964
  - # 2
    frequency:    0.3332626964
  - # 3
    frequency:    0.7622379788
  - # 4
    frequency:    2.0470911582
  - # 5
    frequency:    2.0470911582
  - # 6
    frequency:    5.7525104241
  - # 7
    frequency:    8.4052996358
  - # 8
    frequency:    8.4052996358
  - # 9
    frequency:    8.5912072106
  - # 10
    frequency:    8.5912072106
  - # 11
    frequency:   10.1188912075
  - # 12
    frequency:   10.2198156238

- q-position: [    0.0000000,    0.0000000,    0.0900000 ]
  distance:    0.0144277
  band:
  - # 1
    frequency:    0.3743483912
  - # 2
    frequency:    0.3743483912
  - # 3
    frequency:    0.8567901561
  - # 4
    frequency:    2.0456677428
  - # 5
    frequency:    2.0456677428
  - # 6
    frequency:    5.7420187948
  - # 7
    frequency:    8.4056314348
  - # 8
    frequency:    8.4056314348
  - # 9
    frequency:    8.5899569567
  - # 10
    frequency:    8.5899569567
  - # 11
    frequency:   10.1187559134
  - # 12
    frequency:   10.2190450025

- q-position: [    0.0000000,    0.0000000,    0.1000000 ]
  distance:    0.0160308
  band:
  - # 1
    frequency:    0.4152334824
  - # 2
    frequency:    0.4152334824
  - # 3
    frequency:    0.9510862486
  - # 4
    frequency:    2.0440523657
  - # 5
    frequency:    2.0440523657
  - # 6
    frequency:    5.7302833642
  - # 7
    frequency:    8.4060057380
  - # 8
    frequency:    8.4060057380
  - # 9
    frequency:    8.5885680679
  - # 10
    frequency:    8.5885680679
  - # 11
    frequency:   10.1186139459
  - # 12
    frequency:   10.2181880353

- q-position: [    0.0000000,    0.0000000,    0.1100000 ]
  distance:    0.0176339
  band:
  - # 1
    frequency:    0.4558964195
  - # 2
    frequency:    0.4558964195
  - # 3
    frequency:    1.0450981939
  - # 4
    frequency:    2.0422370756
  - # 5
    frequency:    2.0422370756
  - # 6
    frequency:    5.7173011873
  - # 7
    frequency:    8.4064236571
  - # 8
    frequency:    8.4064236571
  - # 9
    frequency:    8.5870433118
  - # 10
    frequency:    8.5870433118
  - # 11
    frequency:   10.1184682161
  - # 12
    frequency:   10.2172461552

- q-position: [    0.0000000,    0.0000000,    0.1200000 ]
  distance:    0.0192370
  band:
  - # 1
    frequency:    0.4963158863
  - # 2
    frequency:    0.4963158863
  - # 3
    frequency:    1.1387980533
  - # 4
    frequency:    2.0402131961
  - # 5
    frequency:    2.0402131961
  - # 6
    frequency:    5.7030691214
  - # 7
    frequency:    8.4068863979
  - # 8
    frequency:    8.4068863979
  - # 9
    frequency:    8.5853857206
  - # 10
    frequency:    8.5853857206
  - # 11
    frequency:   10.1183218547
  - # 12
    frequency:   10.2162209426

- q-position: [    0.0000000,    0.0000000,    0.1300000 ]
  distance:    0.0208401
  band:
  - # 1
    frequency:    0.5364708237
  - # 2
    frequency:    0.5364708237
  - # 3
    frequency:    1.2321580241
  - # 4
    frequency:    2.0379713569
  - # 5
    frequency:    2.0379713569
  - # 6
    frequency:    5.6875838573
  - # 7
    frequency:    8.4073952528
  - # 8
    frequency:    8.4073952528
  - # 9
    frequency:    8.5835985836
  - # 10
    frequency:    8.5835985836
  - # 11
    frequency:   10.1181781886
  - # 12
    frequency:   10.2151141243

- q-position: [    0.0000000,    0.0000000,    0.1400000 ]
  distance:    0.0224432
  band:
  - # 1
    frequency:    0.5763404542
  - # 2
    frequency:    0.5763404542
  - # 3
    frequency:    1.3251504518
  - # 4
    frequency:    2.0355015290
  - # 5
    frequency:    2.0355015290
  - # 6
    frequency:    5.6708419528
  - # 7
    frequency:    8.4079515938
  - # 8
    frequency:    8.4079515938
  - # 9
    frequency:    8.5816854385
  - # 10
    frequency:    8.5816854385
  - # 11
    frequency:   10.1180407147
  - # 12
    frequency:   10.2139275726

- q-position: [    0.0000000,    0.0000000,    0.1500000 ]
  distance:    0.0240462
  band:
  - # 1
    frequency:    0.6159043047
  - # 2
    frequency:    0.6159043047
  - # 3
    frequency:    1.4177478429
  - # 4
    frequency:    2.0327930605
  - # 5
    frequency:    2.0327930605
  - # 6
    frequency:    5.6528398675
  - # 7
    frequency:    8.4085568644
  - # 8
    frequency:    8.4085568644
  - # 9
    frequency:    8.5796500621
  - # 10
    frequency:    8.5796500621
  - # 11
    frequency:   10.1179130741
  - # 12
    frequency:   10.2126633036

- q-position: [    0.0000000,    0.0000000,    0.1600000 ]
  distance:    0.0256493
  band:
  - # 1
    frequency:    0.6551422307
  - # 2
    frequency:    0.6551422307
  - # 3
    frequency:    1.5099228771
  - # 4
    frequency:    2.0298347158
  - # 5
    frequency:    2.0298347158
  - # 6
    frequency:    5.6335740000
  - # 7
    frequency:    8.4092125711
  - # 8
    frequency:    8.4092125711
  - # 9
    frequency:    8.5774964604
  - # 10
    frequency:    8.5774964604
  - # 11
    frequency:   10.1177990244
  - # 12
    frequency:   10.2113234755

- q-position: [    0.0000000,    0.0000000,    0.1700000 ]
  distance:    0.0272524
  band:
  - # 1
    frequency:    0.6940344400
  - # 2
    frequency:    0.6940344400
  - # 3
    frequency:    1.6016484198
  - # 4
    frequency:    2.0266147155
  - # 5
    frequency:    2.0266147155
  - # 6
    frequency:    5.6130407250
  - # 7
    frequency:    8.4099202740
  - # 8
    frequency:    8.4099202740
  - # 9
    frequency:    8.5752288578
  - # 10
    frequency:    8.5752288578
  - # 11
    frequency:   10.1177024112
  - # 12
    frequency:   10.2099103871

- q-position: [    0.0000000,    0.0000000,    0.1800000 ]
  distance:    0.0288555
  band:
  - # 1
    frequency:    0.7325615160
  - # 2
    frequency:    0.7325615160
  - # 3
    frequency:    1.6928975342
  - # 4
    frequency:    2.0231207791
  - # 5
    frequency:    2.0231207791
  - # 6
    frequency:    5.5912364328
  - # 7
    frequency:    8.4106815779
  - # 8
    frequency:    8.4106815779
  - # 9
    frequency:    8.5728516862
  - # 10
    frequency:    8.5728516862
  - # 11
    frequency:   10.1176271401
  - # 12
    frequency:   10.2084264752

- q-position: [    0.0000000,    0.0000000,    0.1900000 ]
  distance:    0.0304586
  band:
  - # 1
    frequency:    0.7707044415
  - # 2
    frequency:    0.7707044415
  - # 3
    frequency:    1.7836434942
  - # 4
    frequency:    2.0193401685
  - # 5
    frequency:    2.0193401685
  - # 6
    frequency:    5.5681575678
  - # 7
    frequency:    8.4114981212
  - # 8
    frequency:    8.4114981212
  - # 9
    frequency:    8.5703695728
  - # 10
    frequency:    8.5703695728
  - # 11
    frequency:   10.1175771477
  - # 12
    frequency:   10.2068743129

- q-position: [    0.0000000,    0.0000000,    0.2000000 ]
  distance:    0.0320617
  band:
  - # 1
    frequency:    0.8084446224
  - # 2
    frequency:    0.8084446224
  - # 3
    frequency:    1.8738597969
  - # 4
    frequency:    2.0152597328
  - # 5
    frequency:    2.0152597328
  - # 6
    frequency:    5.5438006692
  - # 7
    frequency:    8.4123715667
  - # 8
    frequency:    8.4123715667
  - # 9
    frequency:    8.5677873278
  - # 10
    frequency:    8.5677873278
  - # 11
    frequency:   10.1175563726
  - # 12
    frequency:   10.2052566064

- q-position: [    0.0000000,    0.0000000,    0.2100000 ]
  distance:    0.0336647
  band:
  - # 1
    frequency:    0.8457639108
  - # 2
    frequency:    0.8457639108
  - # 3
    frequency:    1.9635201748
  - # 4
    frequency:    2.0108659545
  - # 5
    frequency:    2.0108659545
  - # 6
    frequency:    5.5181624099
  - # 7
    frequency:    8.4133035894
  - # 8
    frequency:    8.4133035894
  - # 9
    frequency:    8.5651099312
  - # 10
    frequency:    8.5651099312
  - # 11
    frequency:   10.1175687272
  - # 12
    frequency:   10.2035761927

- q-position: [    0.0000000,    0.0000000,    0.2200000 ]
  distance:    0.0352678
  band:
  - # 1
    frequency:    0.8826446285
  - # 2
    frequency:    0.8826446285
  - # 3
    frequency:    2.0061449968
  - # 4
    frequency:    2.0061449968
  - # 5
    frequency:    2.0525986085
  - # 6
    frequency:    5.4912396372
  - # 7
    frequency:    8.4142958662
  - # 8
    frequency:    8.4142958662
  - # 9
    frequency:    8.5623425192
  - # 10
    frequency:    8.5623425192
  - # 11
    frequency:   10.1176180696
  - # 12
    frequency:   10.2018360359

- q-position: [    0.0000000,    0.0000000,    0.2300000 ]
  distance:    0.0368709
  band:
  - # 1
    frequency:    0.9190695898
  - # 2
    frequency:    0.9190695898
  - # 3
    frequency:    2.0010827508
  - # 4
    frequency:    2.0010827508
  - # 5
    frequency:    2.1410693393
  - # 6
    frequency:    5.4630294112
  - # 7
    frequency:    8.4153500640
  - # 8
    frequency:    8.4153500640
  - # 9
    frequency:    8.5594903705
  - # 10
    frequency:    8.5594903705
  - # 11
    frequency:   10.1177081766
  - # 12
    frequency:   10.2000392237

- q-position: [    0.0000000,    0.0000000,    0.2400000 ]
  distance:    0.0384740
  band:
  - # 1
    frequency:    0.9550221249
  - # 2
    frequency:    0.9550221249
  - # 3
    frequency:    1.9956648847
  - # 4
    frequency:    1.9956648847
  - # 5
    frequency:    2.2289068822
  - # 6
    frequency:    5.4335290441
  - # 7
    frequency:    8.4164678277
  - # 8
    frequency:    8.4164678277
  - # 9
    frequency:    8.5565588912
  - # 10
    frequency:    8.5565588912
  - # 11
    frequency:   10.1178427170
  - # 12
    frequency:   10.1981889640

- q-position: [    0.0000000,    0.0000000,    0.2500000 ]
  distance:    0.0400771
  band:
  - # 1
    frequency:    0.9904861019
  - # 2
    frequency:    0.9904861019
  - # 3
    frequency:    1.9898768919
  - # 4
    frequency:    1.9898768919
  - # 5
    frequency:    2.3160860378
  - # 6
    frequency:    5.4027361377
  - # 7
    frequency:    8.4176507683
  - # 8
    frequency:    8.4176507683
  - # 9
    frequency:    8.5535536002
  - # 10
    frequency:    8.5535536002
  - # 11
    frequency:   10.1180252266
  - # 12
    frequency:   10.1962885799

- q-position: [    0.0000000,    0.0000000,    0.2600000 ]
  distance:    0.0416801
  band:
  - # 1
    frequency:    1.0254459495
  - # 2
    frequency:    1.0254459495
  - # 3
    frequency:    1.9837041404
  - # 4
    frequency:    1.9837041404
  - # 5
    frequency:    2.4025819060
  - # 6
    frequency:    5.3706486197
  - # 7
    frequency:    8.4189004504
  - # 8
    frequency:    8.4189004504
  - # 9
    frequency:    8.5504801136
  - # 10
    frequency:    8.5504801136
  - # 11
    frequency:   10.1182590843
  - # 12
    frequency:   10.1943415056

- q-position: [    0.0000000,    0.0000000,    0.2700000 ]
  distance:    0.0432832
  band:
  - # 1
    frequency:    1.0598866786
  - # 2
    frequency:    1.0598866786
  - # 3
    frequency:    1.9771319217
  - # 4
    frequency:    1.9771319217
  - # 5
    frequency:    2.4883698980
  - # 6
    frequency:    5.3372647796
  - # 7
    frequency:    8.4202183799
  - # 8
    frequency:    8.4202183799
  - # 9
    frequency:    8.5473441292
  - # 10
    frequency:    8.5473441292
  - # 11
    frequency:   10.1185474897
  - # 12
    frequency:   10.1923512810

- q-position: [    0.0000000,    0.0000000,    0.2800000 ]
  distance:    0.0448863
  band:
  - # 1
    frequency:    1.0937939041
  - # 2
    frequency:    1.0937939041
  - # 3
    frequency:    1.9701454999
  - # 4
    frequency:    1.9701454999
  - # 5
    frequency:    2.5734257498
  - # 6
    frequency:    5.3025833022
  - # 7
    frequency:    8.4216059916
  - # 8
    frequency:    8.4216059916
  - # 9
    frequency:    8.5441514106
  - # 10
    frequency:    8.5441514106
  - # 11
    frequency:   10.1188934422
  - # 12
    frequency:   10.1903215462

- q-position: [    0.0000000,    0.0000000,    0.2900000 ]
  distance:    0.0464894
  band:
  - # 1
    frequency:    1.1271538652
  - # 2
    frequency:    1.1271538652
  - # 3
    frequency:    1.9627301602
  - # 4
    frequency:    1.9627301602
  - # 5
    frequency:    2.6577255346
  - # 6
    frequency:    5.2666032997
  - # 7
    frequency:    8.4230646365
  - # 8
    frequency:    8.4230646365
  - # 9
    frequency:    8.5409077706
  - # 10
    frequency:    8.5409077706
  - # 11
    frequency:   10.1192997219
  - # 12
    frequency:   10.1882560355

- q-position: [    0.0000000,    0.0000000,    0.3000000 ]
  distance:    0.0480925
  band:
  - # 1
    frequency:    1.1599534468
  - # 2
    frequency:    1.1599534468
  - # 3
    frequency:    1.9548712573
  - # 4
    frequency:    1.9548712573
  - # 5
    frequency:    2.7412456762
  - # 6
    frequency:    5.2293243421
  - # 7
    frequency:    8.4245955693
  - # 8
    frequency:    8.4245955693
  - # 9
    frequency:    8.5376190553
  - # 10
    frequency:    8.5376190553
  - # 11
    frequency:   10.1197688726
  - # 12
    frequency:   10.1861585710

- q-position: [    0.0000000,    0.0000000,    0.3100000 ]
  distance:    0.0496956
  band:
  - # 1
    frequency:    1.1921801979
  - # 2
    frequency:    1.1921801979
  - # 3
    frequency:    1.9465542630
  - # 4
    frequency:    1.9465542630
  - # 5
    frequency:    2.8239629619
  - # 6
    frequency:    5.1907464857
  - # 7
    frequency:    8.4261999362
  - # 8
    frequency:    8.4261999362
  - # 9
    frequency:    8.5342911275
  - # 10
    frequency:    8.5342911275
  - # 11
    frequency:   10.1203031862
  - # 12
    frequency:   10.1840330553

- q-position: [    0.0000000,    0.0000000,    0.3200000 ]
  distance:    0.0512986
  band:
  - # 1
    frequency:    1.2238223520
  - # 2
    frequency:    1.2238223520
  - # 3
    frequency:    1.9377648133
  - # 4
    frequency:    1.9377648133
  - # 5
    frequency:    2.9058545557
  - # 6
    frequency:    5.1508702994
  - # 7
    frequency:    8.4278787624
  - # 8
    frequency:    8.4278787624
  - # 9
    frequency:    8.5309298498
  - # 10
    frequency:    8.5309298498
  - # 11
    frequency:   10.1209046895
  - # 12
    frequency:   10.1818834645

- q-position: [    0.0000000,    0.0000000,    0.3300000 ]
  distance:    0.0529017
  band:
  - # 1
    frequency:    1.2548688440
  - # 2
    frequency:    1.2548688440
  - # 3
    frequency:    1.9284887543
  - # 4
    frequency:    1.9284887543
  - # 5
    frequency:    2.9868980115
  - # 6
    frequency:    5.1096968890
  - # 7
    frequency:    8.4296329402
  - # 8
    frequency:    8.4296329402
  - # 9
    frequency:    8.5275410688
  - # 10
    frequency:    8.5275410688
  - # 11
    frequency:   10.1215751328
  - # 12
    frequency:   10.1797138395

- q-position: [    0.0000000,    0.0000000,    0.3400000 ]
  distance:    0.0545048
  band:
  - # 1
    frequency:    1.2853093286
  - # 2
    frequency:    1.2853093286
  - # 3
    frequency:    1.9187121876
  - # 4
    frequency:    1.9187121876
  - # 5
    frequency:    3.0670712860
  - # 6
    frequency:    5.0672279197
  - # 7
    frequency:    8.4314632175
  - # 8
    frequency:    8.4314632175
  - # 9
    frequency:    8.5241305980
  - # 10
    frequency:    8.5241305980
  - # 11
    frequency:   10.1223159808
  - # 12
    frequency:   10.1775282782

- q-position: [    0.0000000,    0.0000000,    0.3500000 ]
  distance:    0.0561079
  band:
  - # 1
    frequency:    1.3151341960
  - # 2
    frequency:    1.3151341960
  - # 3
    frequency:    1.9084215140
  - # 4
    frequency:    1.9084215140
  - # 5
    frequency:    3.1463527526
  - # 6
    frequency:    5.0234656353
  - # 7
    frequency:    8.4333701859
  - # 8
    frequency:    8.4333701859
  - # 9
    frequency:    8.5207042020
  - # 10
    frequency:    8.5207042020
  - # 11
    frequency:   10.1231284051
  - # 12
    frequency:   10.1753309258

- q-position: [    0.0000000,    0.0000000,    0.3600000 ]
  distance:    0.0577110
  band:
  - # 1
    frequency:    1.3443345877
  - # 2
    frequency:    1.3443345877
  - # 3
    frequency:    1.8976034765
  - # 4
    frequency:    1.8976034765
  - # 5
    frequency:    3.2247212143
  - # 6
    frequency:    4.9784128770
  - # 7
    frequency:    8.4353542704
  - # 8
    frequency:    8.4353542704
  - # 9
    frequency:    8.5172675801
  - # 10
    frequency:    8.5172675801
  - # 11
    frequency:   10.1240132792
  - # 12
    frequency:   10.1731259653

- q-position: [    0.0000000,    0.0000000,    0.3700000 ]
  distance:    0.0593141
  band:
  - # 1
    frequency:    1.3729024102
  - # 2
    frequency:    1.3729024102
  - # 3
    frequency:    1.8862452018
  - # 4
    frequency:    1.8862452018
  - # 5
    frequency:    3.3021559174
  - # 6
    frequency:    4.9320730979
  - # 7
    frequency:    8.4374157185
  - # 8
    frequency:    8.4374157185
  - # 9
    frequency:    8.5138263511
  - # 10
    frequency:    8.5138263511
  - # 11
    frequency:   10.1249711748
  - # 12
    frequency:   10.1709176074

- q-position: [    0.0000000,    0.0000000,    0.3800000 ]
  distance:    0.0609171
  band:
  - # 1
    frequency:    1.4008303488
  - # 2
    frequency:    1.4008303488
  - # 3
    frequency:    1.8743342401
  - # 4
    frequency:    1.8743342401
  - # 5
    frequency:    3.3786365645
  - # 6
    frequency:    4.8844503771
  - # 7
    frequency:    8.4395545904
  - # 8
    frequency:    8.4395545904
  - # 9
    frequency:    8.5103860373
  - # 10
    frequency:    8.5103860373
  - # 11
    frequency:   10.1260023613
  - # 12
    frequency:   10.1687100796

- q-position: [    0.0000000,    0.0000000,    0.3900000 ]
  distance:    0.0625202
  band:
  - # 1
    frequency:    1.4281118785
  - # 2
    frequency:    1.4281118785
  - # 3
    frequency:    1.8618586039
  - # 4
    frequency:    1.8618586039
  - # 5
    frequency:    3.4541433282
  - # 6
    frequency:    4.8355494309
  - # 7
    frequency:    8.4417707500
  - # 8
    frequency:    8.4417707500
  - # 9
    frequency:    8.5069520499
  - # 10
    frequency:    8.5069520499
  - # 11
    frequency:   10.1271068055
  - # 12
    frequency:   10.1665076151

- q-position: [    0.0000000,    0.0000000,    0.4000000 ]
  distance:    0.0641233
  band:
  - # 1
    frequency:    1.4547412749
  - # 2
    frequency:    1.4547412749
  - # 3
    frequency:    1.8488068046
  - # 4
    frequency:    1.8488068046
  - # 5
    frequency:    3.5286568644
  - # 6
    frequency:    4.7853756218
  - # 7
    frequency:    8.4440638557
  - # 8
    frequency:    8.4440638557
  - # 9
    frequency:    8.5035296745
  - # 10
    frequency:    8.5035296745
  - # 11
    frequency:   10.1282841743
  - # 12
    frequency:   10.1643144410

- q-position: [    0.0000000,    0.0000000,    0.4100000 ]
  distance:    0.0657264
  band:
  - # 1
    frequency:    1.4807136233
  - # 2
    frequency:    1.4807136233
  - # 3
    frequency:    1.8351678877
  - # 4
    frequency:    1.8351678877
  - # 5
    frequency:    3.6021583252
  - # 6
    frequency:    4.7339349655
  - # 7
    frequency:    8.4464333531
  - # 8
    frequency:    8.4464333531
  - # 9
    frequency:    8.5001240573
  - # 10
    frequency:    8.5001240573
  - # 11
    frequency:   10.1295338385
  - # 12
    frequency:   10.1621347655

- q-position: [    0.0000000,    0.0000000,    0.4200000 ]
  distance:    0.0673295
  band:
  - # 1
    frequency:    1.5060248255
  - # 2
    frequency:    1.5060248255
  - # 3
    frequency:    1.8209314665
  - # 4
    frequency:    1.8209314665
  - # 5
    frequency:    3.6746293730
  - # 6
    frequency:    4.6812341366
  - # 7
    frequency:    8.4488784678
  - # 8
    frequency:    8.4488784678
  - # 9
    frequency:    8.4967401916
  - # 10
    frequency:    8.4967401916
  - # 11
    frequency:   10.1308548786
  - # 12
    frequency:   10.1599727658

- q-position: [    0.0000000,    0.0000000,    0.4300000 ]
  distance:    0.0689326
  band:
  - # 1
    frequency:    1.5306716062
  - # 2
    frequency:    1.5306716062
  - # 3
    frequency:    1.8060877531
  - # 4
    frequency:    1.8060877531
  - # 5
    frequency:    3.7460521927
  - # 6
    frequency:    4.6272804716
  - # 7
    frequency:    8.4513981989
  - # 8
    frequency:    8.4513981989
  - # 9
    frequency:    8.4933829057
  - # 10
    frequency:    8.4933829057
  - # 11
    frequency:   10.1322460914
  - # 12
    frequency:   10.1578325745

- q-position: [    0.0000000,    0.0000000,    0.4400000 ]
  distance:    0.0705356
  band:
  - # 1
    frequency:    1.5546515170
  - # 2
    frequency:    1.5546515170
  - # 3
    frequency:    1.7906275885
  - # 4
    frequency:    1.7906275885
  - # 5
    frequency:    3.8164095049
  - # 6
    frequency:    4.5720819709
  - # 7
    frequency:    8.4539913140
  - # 8
    frequency:    8.4539913140
  - # 9
    frequency:    8.4900568508
  - # 10
    frequency:    8.4900568508
  - # 11
    frequency:   10.1337059987
  - # 12
    frequency:   10.1557182660

- q-position: [    0.0000000,    0.0000000,    0.4500000 ]
  distance:    0.0721387
  band:
  - # 1
    frequency:    1.5779629386
  - # 2
    frequency:    1.5779629386
  - # 3
    frequency:    1.7745424704
  - # 4
    frequency:    1.7745424704
  - # 5
    frequency:    3.8856845789
  - # 6
    frequency:    4.5156472981
  - # 7
    frequency:    8.4566563446
  - # 8
    frequency:    8.4566563446
  - # 9
    frequency:    8.4867664901
  - # 10
    frequency:    8.4867664901
  - # 11
    frequency:   10.1352328565
  - # 12
    frequency:   10.1536338422

- q-position: [    0.0000000,    0.0000000,    0.4600000 ]
  distance:    0.0737418
  band:
  - # 1
    frequency:    1.6006050816
  - # 2
    frequency:    1.6006050816
  - # 3
    frequency:    1.7578245782
  - # 4
    frequency:    1.7578245782
  - # 5
    frequency:    3.9538612449
  - # 6
    frequency:    4.4579857794
  - # 7
    frequency:    8.4593915829
  - # 8
    frequency:    8.4593915829
  - # 9
    frequency:    8.4835160891
  - # 10
    frequency:    8.4835160891
  - # 11
    frequency:   10.1368246660
  - # 12
    frequency:   10.1515832189

- q-position: [    0.0000000,    0.0000000,    0.4700000 ]
  distance:    0.0753449
  band:
  - # 1
    frequency:    1.6225779856
  - # 2
    frequency:    1.6225779856
  - # 3
    frequency:    1.7404667975
  - # 4
    frequency:    1.7404667975
  - # 5
    frequency:    4.0209239060
  - # 6
    frequency:    4.3991073997
  - # 7
    frequency:    8.4621950791
  - # 8
    frequency:    8.4621950791
  - # 9
    frequency:    8.4803097057
  - # 10
    frequency:    8.4803097057
  - # 11
    frequency:   10.1384791846
  - # 12
    frequency:   10.1495702103

- q-position: [    0.0000000,    0.0000000,    0.4800000 ]
  distance:    0.0769480
  band:
  - # 1
    frequency:    1.6438825153
  - # 2
    frequency:    1.6438825153
  - # 3
    frequency:    1.7224627412
  - # 4
    frequency:    1.7224627412
  - # 5
    frequency:    4.0868575502
  - # 6
    frequency:    4.3390227987
  - # 7
    frequency:    8.4650646405
  - # 8
    frequency:    8.4650646405
  - # 9
    frequency:    8.4771511829
  - # 10
    frequency:    8.4771511829
  - # 11
    frequency:   10.1401939390
  - # 12
    frequency:   10.1475985150

- q-position: [    0.0000000,    0.0000000,    0.4900000 ]
  distance:    0.0785510
  band:
  - # 1
    frequency:    1.6645203561
  - # 2
    frequency:    1.6645203561
  - # 3
    frequency:    1.7038067692
  - # 4
    frequency:    1.7038067692
  - # 5
    frequency:    4.1516477613
  - # 6
    frequency:    4.2777432653
  - # 7
    frequency:    8.4679978307
  - # 8
    frequency:    8.4679978307
  - # 9
    frequency:    8.4740441407
  - # 10
    frequency:    8.4740441407
  - # 11
    frequency:   10.1419662379
  - # 12
    frequency:   10.1456717005

- q-position: [    0.0000000,    0.0000000,    0.5000000 ]
  distance:    0.0801541
  band:
  - # 1
    frequency:    1.6844940058
  - # 2
    frequency:    1.6844940058
  - # 3
    frequency:    1.6844940067
  - # 4
    frequency:    1.6844940067
  - # 5
    frequency:    4.2152807302
  - # 6
    frequency:    4.2152807310
  - # 7
    frequency:    8.4709919707
  - # 8
    frequency:    8.4709919707
  - # 9
    frequency:    8.4709919707
  - # 10
    frequency:    8.4709919707
  - # 11
    frequency:   10.1437931859
  - # 12
    frequency:   10.1437931885

- q-position: [    0.0000000,    0.0000000,    0.5000000 ]
  distance:    0.0801541
  band:
  - # 1
    frequency:    1.6844940058
  - # 2
    frequency:    1.6844940058