# epsilon and Z* of atoms 1 3
   6.04137397    0.00000000    0.00000000   -0.00000000    6.04137397    0.00000000    0.00000000    0.00000000    5.97514758 
   1.96699180    0.00000000    0.00000000   -0.00000000    1.96699180    0.00000000    0.00000000    0.00000000    2.03562074 
  -1.96699180   -0.00000000    0.00000000    0.00000000   -1.96699180    0.00000000    0.00000000    0.00000000   -2.03562074 
