# Sigma = 0.100000
       -0.8648286786        0.0000000000
       -0.8042841638        0.0000000000
       -0.7437396489        0.0000000000
       -0.6831951341        0.0000000000
       -0.6226506193        0.0000000000
       -0.5621061044        0.0000000000
       -0.5015615896        0.0000000000
       -0.4410170748        0.0000000002
       -0.3804725599        0.0000000066
       -0.3199280451        0.0000001242
       -0.2593835303        0.0000016303
       -0.1988390155        0.0000148701
       -0.1382945006        0.0000945146
       -0.0777499858        0.0004210671
       -0.0172054710        0.0013308017
        0.0433390439        0.0030576738
        0.1038835587        0.0053478785
        0.1644280735        0.0076670789
        0.2249725884        0.0098482589
        0.2855171032        0.0121896808
        0.3460616180        0.0153371512
        0.4066061329        0.0205934390
        0.4671506477        0.0295160300
        0.5276951625        0.0419387346
        0.5882396774        0.0549578735
        0.6487841922        0.0654494392
        0.7093287070        0.0730855918
        0.7698732218        0.0805502043
        0.8304177367        0.0920670272
        0.8909622515        0.1108160000
        0.9515067663        0.1353033294
        1.0120512812        0.1589148166
        1.0725957960        0.1766808673
        1.1331403108        0.1912797078
        1.1936848257        0.2097043960
        1.2542293405        0.2379156902
        1.3147738553        0.2775621883
        1.3753183702        0.3231304634
        1.4358628850        0.3659797890
        1.4964073998        0.4035355692
        1.5569519146        0.4434876316
        1.6174964295        0.4982065566
        1.6780409443        0.5719614181
        1.7385854591        0.6579234094
        1.7991299740        0.7540633191
        1.8596744888        0.8753075454
        1.9202190036        1.0436820941
        1.9807635185        1.2694475453
        2.0413080333        1.5476090245
        2.1018525481        1.8757907187
        2.1623970630        2.2621219399
        2.2229415778        2.6857336661
        2.2834860926        3.0523764689
        2.3440306075        3.2498755660
        2.4045751223        3.2622558728
        2.4651196371        3.1754276521
        2.5256641519        3.0800209286
        2.5862086668        3.0099916131
        2.6467531816        2.9526480155
        2.7072976964        2.8854569286
        2.7678422113        2.7991910593
        2.8283867261        2.6956358244
        2.8889312409        2.5855285187
        2.9494757558        2.4914287250
        3.0100202706        2.4284906335
        3.0705647854        2.3761554728
        3.1311093003        2.2881921336
        3.1916538151        2.1304259812
        3.2521983299        1.8890384982
        3.3127428448        1.5579983777
        3.3732873596        1.1547463441
        3.4338318744        0.7475305235
        3.4943763892        0.4305935535
        3.5549209041        0.2505183286
        3.6154654189        0.1771337401
        3.6760099337        0.1534869777
        3.7365544486        0.1457160276
        3.7970989634        0.1449799230
        3.8576434782        0.1516568164
        3.9181879931        0.1654770178
        3.9787325079        0.1820785926
        4.0392770227        0.1959870810
        4.0998215376        0.2041359262
        4.1603660524        0.2077207503
        4.2209105672        0.2145071863
        4.2814550821        0.2318895101
        4.3419995969        0.2552555681
        4.4025441117        0.2732604145
        4.4630886265        0.2834830788
        4.5236331414        0.2945080983
        4.5841776562        0.3145901410
        4.6447221710        0.3436723542
        4.7052666859        0.3743065793
        4.7658112007        0.3996960003
        4.8263557155        0.4235757908
        4.8869002304        0.4567091486
        4.9474447452        0.5026133369
        5.0079892600        0.5545572087
        5.0685337749        0.6092699912
        5.1290782897        0.6762583870
        5.1896228045        0.7658048510
        5.2501673194        0.8770016869
        5.3107118342        1.0054250605
        5.3712563490        1.1519997393
        5.4318008638        1.3204547381
        5.4923453787        1.5096422223
        5.5528898935        1.7061376560
        5.6134344083        1.8929255301
        5.6739789232        2.0643415270
        5.7345234380        2.2061743175
        5.7950679528        2.2585386934
        5.8556124677        2.1276339951
        5.9161569825        1.7637079495
        5.9767014973        1.2368276653
        6.0372460122        0.7110880632
        6.0977905270        0.3266080473
        6.1583350418        0.1170339134
        6.2188795567        0.0319855417
        6.2794240715        0.0065317879
        6.3399685863        0.0009795975
        6.4005131011        0.0001064377
        6.4610576160        0.0000082931
        6.5216021308        0.0000004598
        6.5821466456        0.0000000180
        6.6426911605        0.0000000005
        6.7032356753        0.0000000000
        6.7637801901        0.0000000000
        6.8243247050        0.0000000000
        6.8848692198        0.0000000000
        6.9454137346        0.0000000000
        7.0059582495        0.0000000000
        7.0665027643        0.0000000000
        7.1270472791        0.0000000000
        7.1875917940        0.0000000000
        7.2481363088        0.0000000000
        7.3086808236        0.0000000000
        7.3692253384        0.0000000000
        7.4297698533        0.0000000000
        7.4903143681        0.0000000000
        7.5508588829        0.0000000000
        7.6114033978        0.0000000000
        7.6719479126        0.0000000001
        7.7324924274        0.0000000037
        7.7930369423        0.0000000946
        7.8535814571        0.0000016861
        7.9141259719        0.0000213184
        7.9746704868        0.0001932486
        8.0352150016        0.0012780978
        8.0957595164        0.0063309811
        8.1563040312        0.0243213689
        8.2168485461        0.0752352183
        8.2773930609        0.1928893237
        8.3379375757        0.4158575564
        8.3984820906        0.7606517266
        8.4590266054        1.2013426825
        8.5195711202        1.6917565471
        8.5801156351        2.2153734284
        8.6406601499        2.8164790118
        8.7012046647        3.5840387179
        8.7617491796        4.5487468896
        8.8222936944        5.5115455055
        8.8828382092        6.0397382051
        8.9433827241        5.8382908021
        9.0039272389        5.1133418954
        9.0644717537        4.3517082153
        9.1250162685        3.8153186694
        9.1855607834        3.4512754198
        9.2461052982        3.1371883041
        9.3066498130        2.8097430339
        9.3671943279        2.4430922294
        9.4277388427        2.0275205754
        9.4882833575        1.5791222748
        9.5488278724        1.1595668636
        9.6093723872        0.8877229472
        9.6699169020        0.9412020616
        9.7304614169        1.5002483796
        9.7910059317        2.5594008143
        9.8515504465        3.7638908109
        9.9120949614        4.6032247344
        9.9726394762        4.8361667013
       10.0331839910        4.5686241087
       10.0937285058        3.9492264138
       10.1542730207        3.0411658203
       10.2148175355        1.9853504032
       10.2753620503        1.0483078126
       10.3359065652        0.4317241014
       10.3964510800        0.1349641843
       10.4569955948        0.0313820391
       10.5175401097        0.0053447298
       10.5780846245        0.0006590758
       10.6386291393        0.0000583354
       10.6991736542        0.0000036817
       10.7597181690        0.0000001649
       10.8202626838        0.0000000052
       10.8808071987        0.0000000001
       10.9413517135        0.0000000000
       11.0018962283        0.0000000000
       11.0624407431        0.0000000000
       11.1229852580        0.0000000000
       11.1835297728        0.0000000000
       11.2440742876        0.0000000000
