72   
4    

1    
  0.0033755839367624  -0.0058466828836858   0.0073771086709827
  -0.0234747500    0.0415188700   -0.0517788400
   0.0014069600   -0.0028322500   -0.0008014000
   0.0001252800   -0.0058243200   -0.0025997300
  -0.0007951400   -0.0017598200   -0.0009545500
  -0.0000422800    0.0028100000   -0.0024330300
   0.0004471900   -0.0007751800   -0.0007007600
  -0.0020687800   -0.0013579100   -0.0000548300
   0.0004484200   -0.0007768100   -0.0007019900
   0.0041740400    0.0041115600   -0.0033308700
   0.0000709300   -0.0001238800    0.0022095900
   0.0003565700   -0.0001823900    0.0002344900
   0.0001603900    0.0006751800    0.0010046300
  -0.0001761500    0.0005056700    0.0005354400
   0.0004898500   -0.0002896400    0.0007029900
   0.0000461600   -0.0000816400    0.0004692600
  -0.0003724600   -0.0000930800    0.0001502300
   0.0000465900   -0.0000820900    0.0004699700
  -0.0005753500   -0.0004194300    0.0010873900
   0.0000837700   -0.0046307400    0.0030303300
  -0.0000783200   -0.0008608500    0.0004409000
  -0.0055671900    0.0031136700    0.0005748900
   0.0048500100    0.0026028600    0.0018001500
   0.0006049000    0.0000512800    0.0004189000
  -0.0003455800    0.0001535500    0.0002313000
   0.0004322700   -0.0006568500    0.0004535900
   0.0003536100    0.0002914600    0.0004273600
  -0.0006273800    0.0004372000    0.0003246800
   0.0000887700    0.0024052400   -0.0025656900
   0.0003667900   -0.0006028700    0.0004429100
   0.0005145600   -0.0003973900    0.0061490000
  -0.0012348500   -0.0009155000    0.0017949800
   0.0002193300    0.0002735000    0.0000681800
  -0.0003471600   -0.0002888900    0.0005817900
  -0.0000115200   -0.0004007700    0.0000490900
   0.0003525700   -0.0002220700    0.0008356300
  -0.0002449800    0.0006593200    0.0003258500
   0.0012204600   -0.0020938200    0.0331261600
  -0.0005655700    0.0011193000   -0.0002689300
   0.0005177800   -0.0000447900    0.0010080700
  -0.0003803500   -0.0005020300    0.0003738100
  -0.0009213400   -0.0004137100    0.0003657500
  -0.0000453400    0.0000817800    0.0001211200
   0.0006391800    0.0009073400   -0.0002627200
  -0.0001328600    0.0002339600    0.0001446400
   0.0004466000   -0.0005919700    0.0010053400
   0.0003702400   -0.0006385200   -0.0014902000
  -0.0005144700    0.0001947000    0.0003084700
  -0.0000552200    0.0005198800   -0.0013928100
   0.0002427500   -0.0000287300   -0.0003465700
  -0.0000428400   -0.0000847200   -0.0007363200
  -0.0000217200    0.0000414400   -0.0003576000
   0.0006157100    0.0000579000    0.0005048500
  -0.0001348400    0.0002365600   -0.0004247800
  -0.0004065500   -0.0003653600   -0.0015868000
  -0.0000350500    0.0004381200   -0.0013657400
  -0.0001153300    0.0001973400   -0.0003354200
   0.0010689200   -0.0005770900   -0.0019877800
  -0.0007504700   -0.0003524800   -0.0016761100
  -0.0002245300   -0.0000426900   -0.0002977700
   0.0001486000   -0.0000865900   -0.0002925100
  -0.0000154200    0.0001402700   -0.0002822900
  -0.0001138900    0.0000850700   -0.0003868500
   0.0002605400   -0.0001923600   -0.0002957600
   0.0008850400   -0.0131211600   -0.0020838500
  -0.0007499900    0.0017928400    0.0001686200
   0.0275799500   -0.0170157800    0.0131887300
  -0.0077695900   -0.0066001100    0.0057145400
  -0.0004299100   -0.0001744000    0.0002391200
   0.0003659700    0.0010916700    0.0001711000
   0.0003370800    0.0009151200    0.0000243900
  -0.0009657500   -0.0003264300    0.0003114300
   0.0000151900   -0.0008355500    0.0002028800

1    
 -0.0033755839367624   0.0058466828836858  -0.0073771086709827
   0.0249356700   -0.0422684800    0.0511173200
  -0.0014054900    0.0028101300    0.0009711000
  -0.0001381600    0.0058296300    0.0027739700
   0.0008024200    0.0017494500    0.0011344000
   0.0000478200   -0.0028178000    0.0026099800
  -0.0004457800    0.0007718800    0.0008831500
   0.0020767000    0.0013500200    0.0002331100
  -0.0004463500    0.0007729300    0.0008819900
  -0.0041775000   -0.0041227400    0.0035130200
  -0.0000680800    0.0001169800   -0.0020397000
  -0.0003571100    0.0001776000   -0.0000512900
  -0.0001581500   -0.0006797100   -0.0008209000
   0.0001784100   -0.0005123900   -0.0003539200
  -0.0004895100    0.0002854200   -0.0005197300
  -0.0000449400    0.0000761800   -0.0002879600
   0.0003771800    0.0000885000    0.0000305900
  -0.0000449400    0.0000764700   -0.0002869900
   0.0005761600    0.0004136000   -0.0009047900
  -0.0000904700    0.0046369900   -0.0028108100
   0.0000748500    0.0008599200   -0.0002562400
   0.0055546500   -0.0031063700   -0.0003921300
  -0.0048548900   -0.0025961900   -0.0016024500
  -0.0006038300   -0.0000481700   -0.0002336500
   0.0003452300   -0.0001501500   -0.0000478000
  -0.0004339700    0.0006592000   -0.0002703000
  -0.0003535000   -0.0002854400   -0.0002427800
   0.0006263100   -0.0004341200   -0.0001412500
  -0.0000851200   -0.0024065400    0.0027478400
  -0.0003689300    0.0006057100   -0.0002579700
  -0.0005536500    0.0004205300   -0.0059795200
   0.0012529500    0.0009223500   -0.0016127000
  -0.0002226300   -0.0002691900    0.0001128300
   0.0003438100    0.0002928400   -0.0004015600
   0.0000104300    0.0004034500    0.0001356400
  -0.0003548300    0.0002268000   -0.0006529700
   0.0002419800   -0.0006547600   -0.0001438100
  -0.0012842000    0.0022470000   -0.0320603200
   0.0005609300   -0.0011031400    0.0000834000
  -0.0005223000    0.0000542200   -0.0011936500
   0.0003776700    0.0005112900   -0.0005555400
   0.0009141100    0.0004257900   -0.0005501600
   0.0000410200   -0.0000663600   -0.0003023300
  -0.0006417700   -0.0008920800    0.0000799100
   0.0001294300   -0.0002214500   -0.0003286500
  -0.0004492100    0.0006037600   -0.0011885400
  -0.0003746700    0.0006526100    0.0013106100
   0.0005093900   -0.0001806700   -0.0004884900
   0.0000550600   -0.0005063200    0.0012066200
  -0.0002486200    0.0000409700    0.0001656200
   0.0000366300    0.0000965400    0.0005544300
   0.0000180500   -0.0000309300    0.0001755900
  -0.0006173900   -0.0000441300   -0.0006816400
   0.0001300100   -0.0002225700    0.0002415100
   0.0004048800    0.0003758100    0.0014003700
   0.0000410200   -0.0004562300    0.0011891600
   0.0001205200   -0.0002102200    0.0001489700
  -0.0010638000    0.0005656900    0.0018041700
   0.0007593100    0.0003446400    0.0014954100
   0.0002323600    0.0000291700    0.0001104100
  -0.0001429300    0.0000758300    0.0001092500
   0.0000218600   -0.0001535100    0.0000978200
   0.0001226000   -0.0000960300    0.0002013300
  -0.0002566900    0.0001823300    0.0001086900
  -0.0009097200    0.0131476000    0.0018100700
   0.0007554600   -0.0017991500   -0.0003478900
  -0.0289146500    0.0176682000   -0.0137588300
   0.0077464100    0.0064982400   -0.0058123700
   0.0004354800    0.0001630700   -0.0004195200
  -0.0003608000   -0.0011073900   -0.0003560300
  -0.0003310900   -0.0009262000   -0.0002067500
   0.0009659800    0.0003146000   -0.0004900900
  -0.0000070500    0.0008244800   -0.0003862500

37   
  0.0033755839367624  -0.0058466828836858   0.0073771086709827
   0.0012972100   -0.0022624600    0.0320673600
   0.0003672200   -0.0000481500    0.0012771700
  -0.0001507900    0.0012633800   -0.0001394000
   0.0002218700    0.0007702900    0.0000165900
   0.0006172800   -0.0006054600    0.0011175900
  -0.0001342100    0.0002308600    0.0003404800
  -0.0002289000   -0.0002201000    0.0007242000
  -0.0000437200    0.0000759800    0.0003161700
  -0.0010886500   -0.0007082200    0.0004084800
   0.0003740700   -0.0006468000   -0.0012956500
  -0.0015267000    0.0007105200   -0.0003702100
  -0.0002817900   -0.0007129500   -0.0003221800
   0.0003832600   -0.0013160300   -0.0002792600
  -0.0009102500    0.0005761900   -0.0004135200
  -0.0001349900    0.0002322700   -0.0002295400
   0.0017151200    0.0006239700   -0.0003028200
  -0.0000223700    0.0000387300   -0.0001628700
   0.0004577200    0.0003927700   -0.0003889900
   0.0008414800   -0.0336183800    0.0139598800
  -0.0011209800    0.0015907500    0.0003611100
   0.0111240100   -0.0074971900   -0.0020024600
   0.0093134500    0.0033298400    0.0058253600
  -0.0008228100    0.0000599500    0.0000788400
   0.0003559800    0.0006583300    0.0007212000
   0.0007040200    0.0007120200    0.0005607400
  -0.0009692300    0.0001101900    0.0001680700
   0.0003942800   -0.0005986300    0.0004009200
  -0.0000407100    0.0000132700   -0.0008303400
  -0.0000643100    0.0002422500   -0.0001384600
   0.0006797400   -0.0003451400   -0.0021364500
  -0.0003768600   -0.0001231700   -0.0014857200
  -0.0001165200   -0.0000975300    0.0000052100
   0.0001429600    0.0000568800   -0.0002019000
  -0.0000781600    0.0001853900   -0.0001397100
  -0.0001204600    0.0000307800   -0.0001381100
   0.0001414100   -0.0002482200   -0.0000985800
  -0.0324188700    0.0571231000   -0.0725271600
   0.0022463400   -0.0055664000   -0.0002622000
   0.0035838000   -0.0057202100   -0.0010297800
  -0.0021176600   -0.0034784400   -0.0005977000
   0.0032205900    0.0007032700   -0.0006959700
   0.0001244700   -0.0002098800   -0.0002542500
  -0.0007495600   -0.0021867200   -0.0002112600
   0.0001230700   -0.0002094000   -0.0002563700
   0.0031292100    0.0001612100   -0.0010774400
  -0.0001088700    0.0001942500    0.0006781900
   0.0002367300   -0.0001294500    0.0006978800
   0.0000104500   -0.0001812600    0.0007586300
  -0.0000728400    0.0000814100    0.0007258900
   0.0000375400    0.0000539200    0.0007320700
   0.0000339600   -0.0000540100    0.0000810500
  -0.0002993000   -0.0000884400    0.0006940300
   0.0000335200   -0.0000540400    0.0000804300
   0.0001622600    0.0001639900    0.0007602400
  -0.0003513300   -0.0046438500    0.0058788400
   0.0002741000   -0.0002498300   -0.0001050600
  -0.0013624900    0.0011822000    0.0026024100
   0.0024242500    0.0022018800    0.0042396600
   0.0003698000   -0.0001284800    0.0001006400
  -0.0000764300    0.0000630400   -0.0001892200
  -0.0002035300   -0.0000878500   -0.0001665700
   0.0001762100   -0.0001011500   -0.0000446900
  -0.0002702700    0.0000174900   -0.0000432100
  -0.0003451000    0.0006096400    0.0016912900
   0.0001093600   -0.0003462000   -0.0001064700
   0.0031181400   -0.0014127700    0.0067056200
  -0.0020890400   -0.0004195400    0.0042095300
   0.0000151900    0.0000756000   -0.0002228800
  -0.0000773300   -0.0003463800    0.0001352900
  -0.0000417400   -0.0001848300   -0.0000139200
   0.0001746800    0.0000904300   -0.0001973900
   0.0000820100    0.0002215200   -0.0000433200

37   
 -0.0033755839367624   0.0058466828836858  -0.0073771086709827
  -0.0012053400    0.0020707700   -0.0331451300
  -0.0003641800    0.0000460400   -0.0010919900
   0.0001511900   -0.0012705700    0.0003224200
  -0.0002245700   -0.0007730100    0.0001617300
  -0.0006146500    0.0006012700   -0.0009337500
   0.0001340800   -0.0002335500   -0.0001586200
   0.0002288800    0.0002215400   -0.0005465700
   0.0000465600   -0.0000800400   -0.0001329600
   0.0010921000    0.0007083500   -0.0002278400
  -0.0003692300    0.0006414000    0.0014786800
   0.0015204500   -0.0007126100    0.0005542700
   0.0002810900    0.0007153500    0.0005061700
  -0.0003811500    0.0013087100    0.0004636900
   0.0009103600   -0.0005773500    0.0005963400
   0.0001347300   -0.0002341800    0.0004120000
  -0.0017056600   -0.0006252300    0.0004889000
   0.0000235500   -0.0000408300    0.0003457300
  -0.0004628500   -0.0003980800    0.0005730400
  -0.0009428500    0.0321049400   -0.0134342000
   0.0011286500   -0.0015866700   -0.0001813800
  -0.0111862800    0.0074463300    0.0022901400
  -0.0093216900   -0.0033031700   -0.0057227500
   0.0008205200   -0.0000553200    0.0001049400
  -0.0003651400   -0.0006535800   -0.0005373600
  -0.0006978700   -0.0007163800   -0.0003701800
   0.0009684500   -0.0001094700    0.0000138700
  -0.0004004400    0.0006085000   -0.0002150000
   0.0000399900   -0.0000119300    0.0010064300
   0.0000637800   -0.0002395300    0.0003200000
  -0.0006878200    0.0003511600    0.0023265900
   0.0003783200    0.0001264300    0.0016639900
   0.0001152100    0.0000995200    0.0001767000
  -0.0001434800   -0.0000541400    0.0003832100
   0.0000768700   -0.0001820200    0.0003190700
   0.0001201700   -0.0000276300    0.0003203100
  -0.0001412900    0.0002501700    0.0002795700
   0.0325131500   -0.0553715100    0.0732159900
  -0.0022276700    0.0055366500    0.0000725300
  -0.0036002500    0.0057775500    0.0008555100
   0.0021125500    0.0034672800    0.0004218800
  -0.0032114900   -0.0006953200    0.0005035600
  -0.0001229200    0.0002186400    0.0000739500
   0.0007735700    0.0022123900    0.0000338600
  -0.0001260300    0.0002228900    0.0000727000
  -0.0031373500   -0.0001606300    0.0008966000
   0.0001093300   -0.0001830700   -0.0008637800
  -0.0002348700    0.0001408800   -0.0008787100
  -0.0000096900    0.0001941400   -0.0009443600
   0.0000712400   -0.0000692700   -0.0009045800
  -0.0000390900   -0.0000434700   -0.0009164800
  -0.0000354400    0.0000653800   -0.0002635000
   0.0002959100    0.0000992100   -0.0008719400
  -0.0000355900    0.0000657700   -0.0002626700
  -0.0001639800   -0.0001546600   -0.0009505000
   0.0003400900    0.0045698000   -0.0059632500
  -0.0002743800    0.0002409300   -0.0000756700
   0.0013716000   -0.0011930300   -0.0028099700
  -0.0024148300   -0.0021874300   -0.0043854300
  -0.0003694700    0.0001181800   -0.0002847000
   0.0000783300   -0.0000734900    0.0000041500
   0.0002047100    0.0000787300   -0.0000178100
  -0.0001749300    0.0000891900   -0.0001352200
   0.0002726000   -0.0000275800   -0.0001400100
   0.0003472800   -0.0006132500   -0.0018714700
  -0.0001076100    0.0003349300   -0.0000741100
  -0.0031839700    0.0014289100   -0.0069757200
   0.0021111800    0.0004083900   -0.0044119300
  -0.0000157400   -0.0000864100    0.0000410100
   0.0000791900    0.0003331600   -0.0003162600
   0.0000380400    0.0001732000   -0.0001633800
  -0.0001736000   -0.0001013400    0.0000164500
  -0.0000803400   -0.0002309600   -0.0001367600
