mesh: [    16,    16,    16 ]
nqpoint: 576    
reciprocal_lattice:
- [   0.26275709,  -0.15170288,   0.00000000 ] # a*
- [   0.26275709,   0.15170288,   0.00000000 ] # b*
- [   0.00000000,   0.00000000,   0.16030826 ] # c*
natom:   4      
lattice:
- [     1.902898233547076,    -3.295916422136603,     0.000000000000000 ] # a
- [     1.902898233547076,     3.295916422136603,     0.000000000000000 ] # b
- [     0.000000000000000,     0.000000000000000,     6.237981630000000 ] # c
points:
- symbol: Zn # 1
  coordinates: [  0.333333333333336,  0.666666666666664,  0.000311507514819 ]
  mass: 65.380000
- symbol: Zn # 2
  coordinates: [  0.666666666666664,  0.333333333333336,  0.500311507514819 ]
  mass: 65.380000
- symbol: S # 3
  coordinates: [  0.333333333333336,  0.666666666666664,  0.374688492485181 ]
  mass: 32.065000
- symbol: S # 4
  coordinates: [  0.666666666666664,  0.333333333333336,  0.874688492485181 ]
  mass: 32.065000

phonon:
- q-position: [    0.0312500,    0.0312500,    0.0312500 ]
  distance_from_gamma:  0.017169419
  weight: 4    
  band:
  - # 1
    frequency:     0.3294777740
  - # 2
    frequency:     0.4035967808
  - # 3
    frequency:     0.9305913608
  - # 4
    frequency:     2.0767097961
  - # 5
    frequency:     2.1851653132
  - # 6
    frequency:     5.7602041832
  - # 7
    frequency:     8.2818663983
  - # 8
    frequency:     8.4140299552
  - # 9
    frequency:     8.6142548893
  - # 10
    frequency:     8.6340693269
  - # 11
    frequency:    10.1155975139
  - # 12
    frequency:    10.2008936997

- q-position: [    0.0937500,    0.0312500,    0.0312500 ]
  distance_from_gamma:  0.034550891
  weight: 8    
  band:
  - # 1
    frequency:     0.7955020745
  - # 2
    frequency:     0.8118470368
  - # 3
    frequency:     1.7800737975
  - # 4
    frequency:     2.1395917555
  - # 5
    frequency:     2.5701434533
  - # 6
    frequency:     5.6869634745
  - # 7
    frequency:     8.3170128700
  - # 8
    frequency:     8.4493753297
  - # 9
    frequency:     8.6832747788
  - # 10
    frequency:     8.7373186776
  - # 11
    frequency:    10.1038597382
  - # 12
    frequency:    10.1753549518

- q-position: [    0.1562500,    0.0312500,    0.0312500 ]
  distance_from_gamma:  0.053027533
  weight: 8    
  band:
  - # 1
    frequency:     1.1832640758
  - # 2
    frequency:     1.2638594070
  - # 3
    frequency:     2.2031108531
  - # 4
    frequency:     2.6817833270
  - # 5
    frequency:     3.0401214186
  - # 6
    frequency:     5.6040065783
  - # 7
    frequency:     8.3942124630
  - # 8
    frequency:     8.5085711430
  - # 9
    frequency:     8.7938006647
  - # 10
    frequency:     8.8818693474
  - # 11
    frequency:    10.0750308344
  - # 12
    frequency:    10.1540662994

- q-position: [    0.2187500,    0.0312500,    0.0312500 ]
  distance_from_gamma:  0.071758306
  weight: 8    
  band:
  - # 1
    frequency:     1.5262636372
  - # 2
    frequency:     1.6775081980
  - # 3
    frequency:     2.3434454184
  - # 4
    frequency:     3.3034228378
  - # 5
    frequency:     3.5721640353
  - # 6
    frequency:     5.5852618130
  - # 7
    frequency:     8.5028977832
  - # 8
    frequency:     8.5817797653
  - # 9
    frequency:     8.9191279431
  - # 10
    frequency:     9.0314093904
  - # 11
    frequency:    10.0196780456
  - # 12
    frequency:    10.1632728506

- q-position: [    0.2812500,    0.0312500,    0.0312500 ]
  distance_from_gamma:  0.090585704
  weight: 8    
  band:
  - # 1
    frequency:     1.8032052291
  - # 2
    frequency:     2.0408290001
  - # 3
    frequency:     2.5113504621
  - # 4
    frequency:     3.4310804224
  - # 5
    frequency:     4.2772391252
  - # 6
    frequency:     5.6704581891
  - # 7
    frequency:     8.6319054658
  - # 8
    frequency:     8.6571807823
  - # 9
    frequency:     9.0388846475
  - # 10
    frequency:     9.1588103659
  - # 11
    frequency:     9.9564737284
  - # 12
    frequency:    10.1930216204

- q-position: [    0.3437500,    0.0312500,    0.0312500 ]
  distance_from_gamma:  0.109459880
  weight: 8    
  band:
  - # 1
    frequency:     1.9943197759
  - # 2
    frequency:     2.3470593035
  - # 3
    frequency:     2.6840392211
  - # 4
    frequency:     3.3608998387
  - # 5
    frequency:     4.8673062469
  - # 6
    frequency:     5.7998052856
  - # 7
    frequency:     8.7154820606
  - # 8
    frequency:     8.7723306396
  - # 9
    frequency:     9.1332503797
  - # 10
    frequency:     9.2560911520
  - # 11
    frequency:     9.9052803168
  - # 12
    frequency:    10.2225542185

- q-position: [    0.4062500,    0.0312500,    0.0312500 ]
  distance_from_gamma:  0.128360199
  weight: 8    
  band:
  - # 1
    frequency:     2.1011458117
  - # 2
    frequency:     2.5923330623
  - # 3
    frequency:     2.8232577323
  - # 4
    frequency:     3.2136399246
  - # 5
    frequency:     5.2923348331
  - # 6
    frequency:     5.8850821550
  - # 7
    frequency:     8.7597905853
  - # 8
    frequency:     8.8867060840
  - # 9
    frequency:     9.1877746148
  - # 10
    frequency:     9.3215735819
  - # 11
    frequency:     9.8780635878
  - # 12
    frequency:    10.2381864139

- q-position: [    0.4687500,    0.0312500,    0.0312500 ]
  distance_from_gamma:  0.147276598
  weight: 8    
  band:
  - # 1
    frequency:     2.1417023274
  - # 2
    frequency:     2.7474610783
  - # 3
    frequency:     2.8906670096
  - # 4
    frequency:     3.0892343803
  - # 5
    frequency:     5.5042401460
  - # 6
    frequency:     5.9022475763
  - # 7
    frequency:     8.7797125883
  - # 8
    frequency:     8.9463071408
  - # 9
    frequency:     9.2057056058
  - # 10
    frequency:     9.3509724291
  - # 11
    frequency:     9.8708619870
  - # 12
    frequency:    10.2418152116

- q-position: [   -0.4687500,    0.0312500,    0.0312500 ]
  distance_from_gamma:  0.137816802
  weight: 8    
  band:
  - # 1
    frequency:     2.1285791177
  - # 2
    frequency:     2.6868965162
  - # 3
    frequency:     2.8677404125
  - # 4
    frequency:     3.1401989762
  - # 5
    frequency:     5.4297020382
  - # 6
    frequency:     5.8998085126
  - # 7
    frequency:     8.7729966195
  - # 8
    frequency:     8.9255279515
  - # 9
    frequency:     9.2003397851
  - # 10
    frequency:     9.3410733409
  - # 11
    frequency:     9.8728026037
  - # 12
    frequency:    10.2409186307

- q-position: [   -0.4062500,    0.0312500,    0.0312500 ]
  distance_from_gamma:  0.118907550
  weight: 8    
  band:
  - # 1
    frequency:     2.0572611484
  - # 2
    frequency:     2.4777139493
  - # 3
    frequency:     2.7604904267
  - # 4
    frequency:     3.2909882036
  - # 5
    frequency:     5.1027082865
  - # 6
    frequency:     5.8515808189
  - # 7
    frequency:     8.7404852087
  - # 8
    frequency:     8.8340814126
  - # 9
    frequency:     9.1658082660
  - # 10
    frequency:     9.2930269087
  - # 11
    frequency:     9.8884932025
  - # 12
    frequency:    10.2323413111

- q-position: [   -0.3437500,    0.0312500,    0.0312500 ]
  distance_from_gamma:  0.100018598
  weight: 8    
  band:
  - # 1
    frequency:     1.9100113227
  - # 2
    frequency:     2.2013259223
  - # 3
    frequency:     2.5992332329
  - # 4
    frequency:     3.4121233115
  - # 5
    frequency:     4.5906862856
  - # 6
    frequency:     5.7359109147
  - # 7
    frequency:     8.6841020272
  - # 8
    frequency:     8.7070451423
  - # 9
    frequency:     9.0904163693
  - # 10
    frequency:     9.2112816783
  - # 11
    frequency:     9.9283520405
  - # 12
    frequency:    10.2090018405

- q-position: [   -0.2812500,    0.0312500,    0.0312500 ]
  distance_from_gamma:  0.081164122
  weight: 8    
  band:
  - # 1
    frequency:     1.6745375770
  - # 2
    frequency:     1.8659861576
  - # 3
    frequency:     2.4249174359
  - # 4
    frequency:     3.4018565875
  - # 5
    frequency:     3.9329037325
  - # 6
    frequency:     5.6164301459
  - # 7
    frequency:     8.5660934315
  - # 8
    frequency:     8.6196105493
  - # 9
    frequency:     8.9809470071
  - # 10
    frequency:     9.0987274599
  - # 11
    frequency:     9.9876898743
  - # 12
    frequency:    10.1768772175

- q-position: [   -0.2187500,    0.0312500,    0.0312500 ]
  distance_from_gamma:  0.062375391
  weight: 8    
  band:
  - # 1
    frequency:     1.3614742480
  - # 2
    frequency:     1.4763930919
  - # 3
    frequency:     2.2694039376
  - # 4
    frequency:     3.0677780489
  - # 5
    frequency:     3.2652670055
  - # 6
    frequency:     5.5821066442
  - # 7
    frequency:     8.4451151048
  - # 8
    frequency:     8.5442396404
  - # 9
    frequency:     8.8559306500
  - # 10
    frequency:     8.9581999200
  - # 11
    frequency:    10.0498072359
  - # 12
    frequency:    10.1548825364

- q-position: [   -0.1562500,    0.0312500,    0.0312500 ]
  distance_from_gamma:  0.043737217
  weight: 8    
  band:
  - # 1
    frequency:     0.9942713454
  - # 2
    frequency:     1.0413398900
  - # 3
    frequency:     2.1217239519
  - # 4
    frequency:     2.2807040693
  - # 5
    frequency:     2.8082302208
  - # 6
    frequency:     5.6423729589
  - # 7
    frequency:     8.3512178770
  - # 8
    frequency:     8.4764609281
  - # 9
    frequency:     8.7352706794
  - # 10
    frequency:     8.8065915789
  - # 11
    frequency:    10.0928231458
  - # 12
    frequency:    10.1618273500

- q-position: [   -0.0937500,    0.0312500,    0.0312500 ]
  distance_from_gamma:  0.025580833
  weight: 8    
  band:
  - # 1
    frequency:     0.5683167983
  - # 2
    frequency:     0.5995792233
  - # 3
    frequency:     1.3455860026
  - # 4
    frequency:     2.1034865336
  - # 5
    frequency:     2.3509355471
  - # 6
    frequency:     5.7285873421
  - # 7
    frequency:     8.2928208473
  - # 8
    frequency:     8.4283460564
  - # 9
    frequency:     8.6415095658
  - # 10
    frequency:     8.6786901161
  - # 11
    frequency:    10.1109425144
  - # 12
    frequency:    10.1895318374

- q-position: [   -0.0312500,    0.0312500,    0.0312500 ]
  distance_from_gamma:  0.010723523
  weight: 4    
  band:
  - # 1
    frequency:     0.1351713214
  - # 2
    frequency:     0.2532899133
  - # 3
    frequency:     0.6074233888
  - # 4
    frequency:     2.0550865851
  - # 5
    frequency:     2.1017922560
  - # 6
    frequency:     5.7771618138
  - # 7
    frequency:     8.2927447664
  - # 8
    frequency:     8.4071559394
  - # 9
    frequency:     8.6032272995
  - # 10
    frequency:     8.6072612660
  - # 11
    frequency:    10.1180580187
  - # 12
    frequency:    10.2082950078

- q-position: [    0.0937500,    0.0937500,    0.0312500 ]
  distance_from_gamma:  0.049520998
  weight: 4    
  band:
  - # 1
    frequency:     1.1734630562
  - # 2
    frequency:     1.1996271860
  - # 3
    frequency:     2.1876721833
  - # 4
    frequency:     2.5668530197
  - # 5
    frequency:     2.8748016710
  - # 6
    frequency:     5.6158523654
  - # 7
    frequency:     8.3768791748
  - # 8
    frequency:     8.5215962981
  - # 9
    frequency:     8.7609459204
  - # 10
    frequency:     8.8490615982
  - # 11
    frequency:    10.0980597245
  - # 12
    frequency:    10.1349262777

- q-position: [    0.1562500,    0.0937500,    0.0312500 ]
  distance_from_gamma:  0.066558804
  weight: 8    
  band:
  - # 1
    frequency:     1.5490141936
  - # 2
    frequency:     1.5873312576
  - # 3
    frequency:     2.3758653445
  - # 4
    frequency:     3.1757089454
  - # 5
    frequency:     3.2925488532
  - # 6
    frequency:     5.5729711127
  - # 7
    frequency:     8.4699471254
  - # 8
    frequency:     8.6104844007
  - # 9
    frequency:     8.8857462126
  - # 10
    frequency:     8.9696738360
  - # 11
    frequency:    10.0621364046
  - # 12
    frequency:    10.1178904273

- q-position: [    0.2187500,    0.0937500,    0.0312500 ]
  distance_from_gamma:  0.084421560
  weight: 8    
  band:
  - # 1
    frequency:     1.8683117744
  - # 2
    frequency:     1.9415819048
  - # 3
    frequency:     2.5454441962
  - # 4
    frequency:     3.3772937539
  - # 5
    frequency:     3.9726041328
  - # 6
    frequency:     5.6137861840
  - # 7
    frequency:     8.5884195454
  - # 8
    frequency:     8.6932257607
  - # 9
    frequency:     9.0007049465
  - # 10
    frequency:     9.1092787624
  - # 11
    frequency:     9.9947131055
  - # 12
    frequency:    10.1414649642

- q-position: [    0.2812500,    0.0937500,    0.0312500 ]
  distance_from_gamma:  0.102679624
  weight: 8    
  band:
  - # 1
    frequency:     2.1043662231
  - # 2
    frequency:     2.2572325045
  - # 3
    frequency:     2.7150196220
  - # 4
    frequency:     3.3857567197
  - # 5
    frequency:     4.5832815749
  - # 6
    frequency:     5.7230163413
  - # 7
    frequency:     8.7097516066
  - # 8
    frequency:     8.7696429051
  - # 9
    frequency:     9.0703846102
  - # 10
    frequency:     9.2624188090
  - # 11
    frequency:     9.9320945215
  - # 12
    frequency:    10.1741323989

- q-position: [    0.3437500,    0.0937500,    0.0312500 ]
  distance_from_gamma:  0.121154408
  weight: 8    
  band:
  - # 1
    frequency:     2.2535380137
  - # 2
    frequency:     2.5214525251
  - # 3
    frequency:     2.8653839505
  - # 4
    frequency:     3.2819069076
  - # 5
    frequency:     5.0681595608
  - # 6
    frequency:     5.8210879632
  - # 7
    frequency:     8.7763837490
  - # 8
    frequency:     8.8779255589
  - # 9
    frequency:     9.0986386001
  - # 10
    frequency:     9.3942876281
  - # 11
    frequency:     9.8837097129
  - # 12
    frequency:    10.2029373857

- q-position: [    0.4062500,    0.0937500,    0.0312500 ]
  distance_from_gamma:  0.139759995
  weight: 8    
  band:
  - # 1
    frequency:     2.3271750696
  - # 2
    frequency:     2.7216521563
  - # 3
    frequency:     2.9623750427
  - # 4
    frequency:     3.1499782096
  - # 5
    frequency:     5.3863784432
  - # 6
    frequency:     5.8529385267
  - # 7
    frequency:     8.8051088058
  - # 8
    frequency:     8.9767766280
  - # 9
    frequency:     9.0929082499
  - # 10
    frequency:     9.4795054069
  - # 11
    frequency:     9.8526364700
  - # 12
    frequency:    10.2206218396

- q-position: [   -0.5312500,    0.0937500,    0.0312500 ]
  distance_from_gamma:  0.149096551
  weight: 8    
  band:
  - # 1
    frequency:     2.3408896580
  - # 2
    frequency:     2.7794296346
  - # 3
    frequency:     2.9806374857
  - # 4
    frequency:     3.1065933382
  - # 5
    frequency:     5.4609420689
  - # 6
    frequency:     5.8503535008
  - # 7
    frequency:     8.8109819104
  - # 8
    frequency:     9.0041842797
  - # 9
    frequency:     9.0850281574
  - # 10
    frequency:     9.4980078191
  - # 11
    frequency:     9.8455256989
  - # 12
    frequency:    10.2242968564

- q-position: [   -0.4687500,    0.0937500,    0.0312500 ]
  distance_from_gamma:  0.130444340
  weight: 8    
  band:
  - # 1
    frequency:     2.2986907600
  - # 2
    frequency:     2.6312553554
  - # 3
    frequency:     2.9228533532
  - # 4
    frequency:     3.2142338296
  - # 5
    frequency:     5.2514087648
  - # 6
    frequency:     5.8458533666
  - # 7
    frequency:     8.7936394352
  - # 8
    frequency:     8.9324096307
  - # 9
    frequency:     9.0990565739
  - # 10
    frequency:     9.4441104482
  - # 11
    frequency:     9.8657594340
  - # 12
    frequency:    10.2134134170

- q-position: [   -0.4062500,    0.0937500,    0.0312500 ]
  distance_from_gamma:  0.111896605
  weight: 8    
  band:
  - # 1
    frequency:     2.1894298463
  - # 2
    frequency:     2.3963163989
  - # 3
    frequency:     2.7945543998
  - # 4
    frequency:     3.3423413398
  - # 5
    frequency:     4.8437988258
  - # 6
    frequency:     5.7783666894
  - # 7
    frequency:     8.7508857343
  - # 8
    frequency:     8.8200924436
  - # 9
    frequency:     9.0894537530
  - # 10
    frequency:     9.3327630621
  - # 11
    frequency:     9.9058880902
  - # 12
    frequency:    10.1896139944

- q-position: [   -0.3437500,    0.0937500,    0.0312500 ]
  distance_from_gamma:  0.093515533
  weight: 8    
  band:
  - # 1
    frequency:     1.9972942573
  - # 2
    frequency:     2.1051945794
  - # 3
    frequency:     2.6309354484
  - # 4
    frequency:     3.4011909563
  - # 5
    frequency:     4.2911674548
  - # 6
    frequency:     5.6643535703
  - # 7
    frequency:     8.6517641218
  - # 8
    frequency:     8.7304232188
  - # 9
    frequency:     9.0409803507
  - # 10
    frequency:     9.1865306570
  - # 11
    frequency:     9.9619856932
  - # 12
    frequency:    10.1575811630

- q-position: [   -0.2812500,    0.0937500,    0.0312500 ]
  distance_from_gamma:  0.075423070
  weight: 8    
  band:
  - # 1
    frequency:     1.7182833448
  - # 2
    frequency:     1.7683687660
  - # 3
    frequency:     2.4603911135
  - # 4
    frequency:     3.3050879117
  - # 5
    frequency:     3.6344398711
  - # 6
    frequency:     5.5815606102
  - # 7
    frequency:     8.5267837041
  - # 8
    frequency:     8.6533737024
  - # 9
    frequency:     8.9484918561
  - # 10
    frequency:     9.0358971440
  - # 11
    frequency:    10.0288392293
  - # 12
    frequency:    10.1275583999

- q-position: [   -0.2187500,    0.0937500,    0.0312500 ]
  distance_from_gamma:  0.057890451
  weight: 8    
  band:
  - # 1
    frequency:     1.3651210707
  - # 2
    frequency:     1.3980208462
  - # 3
    frequency:     2.2887023760
  - # 4
    frequency:     2.9036638356
  - # 5
    frequency:     3.0527160397
  - # 6
    frequency:     5.5865999550
  - # 7
    frequency:     8.4196145458
  - # 8
    frequency:     8.5658293949
  - # 9
    frequency:     8.8201286501
  - # 10
    frequency:     8.9084259938
  - # 11
    frequency:    10.0889655716
  - # 12
    frequency:    10.1171668222

- q-position: [   -0.1562500,    0.0937500,    0.0312500 ]
  distance_from_gamma:  0.041631108
  weight: 8    
  band:
  - # 1
    frequency:     0.9803953418
  - # 2
    frequency:     0.9980356782
  - # 3
    frequency:     2.0327276910
  - # 4
    frequency:     2.2879310552
  - # 5
    frequency:     2.7101047748
  - # 6
    frequency:     5.6520604375
  - # 7
    frequency:     8.3425010187
  - # 8
    frequency:     8.4811260924
  - # 9
    frequency:     8.7145756864
  - # 10
    frequency:     8.7912611918
  - # 11
    frequency:    10.1006481722
  - # 12
    frequency:    10.1575771008

- q-position: [   -0.0937500,    0.0937500,    0.0312500 ]
  distance_from_gamma:  0.028882071
  weight: 4    
  band:
  - # 1
    frequency:     0.6558867291
  - # 2
    frequency:     0.6601899650
  - # 3
    frequency:     1.5191049678
  - # 4
    frequency:     2.0870372630
  - # 5
    frequency:     2.4502867632
  - # 6
    frequency:     5.7139650680
  - # 7
    frequency:     8.3006083755
  - # 8
    frequency:     8.4317918958
  - # 9
    frequency:     8.6622600156
  - # 10
    frequency:     8.6948725174
  - # 11
    frequency:    10.1077682020
  - # 12
    frequency:    10.1858619645

- q-position: [    0.1562500,    0.1562500,    0.0312500 ]
  distance_from_gamma:  0.082264267
  weight: 4    
  band:
  - # 1
    frequency:     1.8823892897
  - # 2
    frequency:     1.9658739045
  - # 3
    frequency:     2.5893805274
  - # 4
    frequency:     3.3318243903
  - # 5
    frequency:     3.8303662970
  - # 6
    frequency:     5.5919845415
  - # 7
    frequency:     8.5738471328
  - # 8
    frequency:     8.7261628085
  - # 9
    frequency:     9.0187267236
  - # 10
    frequency:     9.0503289656
  - # 11
    frequency:    10.0357215470
  - # 12
    frequency:    10.0904834725

- q-position: [    0.2187500,    0.1562500,    0.0312500 ]
  distance_from_gamma:  0.099115715
  weight: 8    
  band:
  - # 1
    frequency:     2.1875464480
  - # 2
    frequency:     2.2789426571
  - # 3
    frequency:     2.7888746612
  - # 4
    frequency:     3.3682306177
  - # 5
    frequency:     4.3624205195
  - # 6
    frequency:     5.6670989281
  - # 7
    frequency:     8.6937690202
  - # 8
    frequency:     8.8037796895
  - # 9
    frequency:     9.1020985256
  - # 10
    frequency:     9.1987771003
  - # 11
    frequency:     9.9881164522
  - # 12
    frequency:    10.0981788154

- q-position: [    0.2812500,    0.1562500,    0.0312500 ]
  distance_from_gamma:  0.116617411
  weight: 8    
  band:
  - # 1
    frequency:     2.4403194769
  - # 2
    frequency:     2.5133313545
  - # 3
    frequency:     2.9572765589
  - # 4
    frequency:     3.3142388075
  - # 5
    frequency:     4.8294476291
  - # 6
    frequency:     5.7490593853
  - # 7
    frequency:     8.7919690919
  - # 8
    frequency:     8.8666834063
  - # 9
    frequency:     9.1318019458
  - # 10
    frequency:     9.3737600928
  - # 11
    frequency:     9.9335671567
  - # 12
    frequency:    10.1299899891

- q-position: [    0.3437500,    0.1562500,    0.0312500 ]
  distance_from_gamma:  0.134515783
  weight: 8    
  band:
  - # 1
    frequency:     2.5937067433
  - # 2
    frequency:     2.7069322178
  - # 3
    frequency:     3.0746856555
  - # 4
    frequency:     3.2158049021
  - # 5
    frequency:     5.1932073316
  - # 6
    frequency:     5.7802297243
  - # 7
    frequency:     8.8303382519
  - # 8
    frequency:     8.9495134219
  - # 9
    frequency:     9.1319136309
  - # 10
    frequency:     9.5251746216
  - # 11
    frequency:     9.8647447098
  - # 12
    frequency:    10.1735613817

- q-position: [    0.4062500,    0.1562500,    0.0312500 ]
  distance_from_gamma:  0.152671384
  weight: 8    
  band:
  - # 1
    frequency:     2.6507128792
  - # 2
    frequency:     2.8388617552
  - # 3
    frequency:     3.0844057956
  - # 4
    frequency:     3.1696232862
  - # 5
    frequency:     5.3933966065
  - # 6
    frequency:     5.7591877478
  - # 7
    frequency:     8.8464067357
  - # 8
    frequency:     8.9875636161
  - # 9
    frequency:     9.1321698386
  - # 10
    frequency:     9.6212337535
  - # 11
    frequency:     9.8015970779
  - # 12
    frequency:    10.2001682992

- q-position: [   -0.5312500,    0.1562500,    0.0312500 ]
  distance_from_gamma:  0.143567497
  weight: 8    
  band:
  - # 1
    frequency:     2.6322561927
  - # 2
    frequency:     2.7868451412
  - # 3
    frequency:     3.0967076037
  - # 4
    frequency:     3.1772658612
  - # 5
    frequency:     5.3202966593
  - # 6
    frequency:     5.7719550410
  - # 7
    frequency:     8.8406176096
  - # 8
    frequency:     8.9758860629
  - # 9
    frequency:     9.1311915654
  - # 10
    frequency:     9.5837744449
  - # 11
    frequency:     9.8284377402
  - # 12
    frequency:    10.1907130347

- q-position: [   -0.4687500,    0.1562500,    0.0312500 ]
  distance_from_gamma:  0.125527530
  weight: 8    
  band:
  - # 1
    frequency:     2.5312752620
  - # 2
    frequency:     2.6134880110
  - # 3
    frequency:     3.0244296277
  - # 4
    frequency:     3.2668201230
  - # 5
    frequency:     5.0268755077
  - # 6
    frequency:     5.7731936142
  - # 7
    frequency:     8.8156976492
  - # 8
    frequency:     8.9099955917
  - # 9
    frequency:     9.1336345350
  - # 10
    frequency:     9.4539686736
  - # 11
    frequency:     9.9009119950
  - # 12
    frequency:    10.1519650380

- q-position: [   -0.4062500,    0.1562500,    0.0312500 ]
  distance_from_gamma:  0.107804801
  weight: 8    
  band:
  - # 1
    frequency:     2.3230794309
  - # 2
    frequency:     2.4043381746
  - # 3
    frequency:     2.8778479070
  - # 4
    frequency:     3.3501602244
  - # 5
    frequency:     4.6063920921
  - # 6
    frequency:     5.7114085647
  - # 7
    frequency:     8.7501838362
  - # 8
    frequency:     8.8321020930
  - # 9
    frequency:     9.1219696445
  - # 10
    frequency:     9.2874840553
  - # 11
    frequency:     9.9622287821
  - # 12
    frequency:    10.1113439871

- q-position: [   -0.3437500,    0.1562500,    0.0312500 ]
  distance_from_gamma:  0.090585704
  weight: 8    
  band:
  - # 1
    frequency:     2.0394231551
  - # 2
    frequency:     2.1329838443
  - # 3
    frequency:     2.6922083190
  - # 4
    frequency:     3.3631340385
  - # 5
    frequency:     4.1021497454
  - # 6
    frequency:     5.6246181911
  - # 7
    frequency:     8.6330998675
  - # 8
    frequency:     8.7704800844
  - # 9
    frequency:     9.0717952749
  - # 10
    frequency:     9.1132773736
  - # 11
    frequency:    10.0127516457
  - # 12
    frequency:    10.0910139054

- q-position: [   -0.2812500,    0.1562500,    0.0312500 ]
  distance_from_gamma:  0.074221591
  weight: 8    
  band:
  - # 1
    frequency:     1.7192191076
  - # 2
    frequency:     1.7803822386
  - # 3
    frequency:     2.4824942563
  - # 4
    frequency:     3.2737346645
  - # 5
    frequency:     3.5531416864
  - # 6
    frequency:     5.5744325719
  - # 7
    frequency:     8.5188881494
  - # 8
    frequency:     8.6709519403
  - # 9
    frequency:     8.9484221591
  - # 10
    frequency:     9.0099354117
  - # 11
    frequency:    10.0528849068
  - # 12
    frequency:    10.0994678394

- q-position: [   -0.2187500,    0.1562500,    0.0312500 ]
  distance_from_gamma:  0.059423054
  weight: 8    
  band:
  - # 1
    frequency:     1.3620258337
  - # 2
    frequency:     1.4139279305
  - # 3
    frequency:     2.2781809569
  - # 4
    frequency:     2.9515941084
  - # 5
    frequency:     3.1448974909
  - # 6
    frequency:     5.5846298701
  - # 7
    frequency:     8.4281494837
  - # 8
    frequency:     8.5534205003
  - # 9
    frequency:     8.8341631963
  - # 10
    frequency:     8.9267612230
  - # 11
    frequency:    10.0683396935
  - # 12
    frequency:    10.1382038270

- q-position: [   -0.1562500,    0.1562500,    0.0312500 ]
  distance_from_gamma:  0.047671104
  weight: 4    
  band:
  - # 1
    frequency:     1.0530777188
  - # 2
    frequency:     1.1362958903
  - # 3
    frequency:     2.1625849141
  - # 4
    frequency:     2.4337854387
  - # 5
    frequency:     2.9282790218
  - # 6
    frequency:     5.6250477690
  - # 7
    frequency:     8.3685110926
  - # 8
    frequency:     8.4825644790
  - # 9
    frequency:     8.7623990584
  - # 10
    frequency:     8.8389994822
  - # 11
    frequency:    10.0833050460
  - # 12
    frequency:    10.1620895119

- q-position: [    0.2187500,    0.2187500,    0.0312500 ]
  distance_from_gamma:  0.115065331
  weight: 4    
  band:
  - # 1
    frequency:     2.4498101399
  - # 2
    frequency:     2.5991198673
  - # 3
    frequency:     3.0089206924
  - # 4
    frequency:     3.3179567393
  - # 5
    frequency:     4.7175290737
  - # 6
    frequency:     5.7174590394
  - # 7
    frequency:     8.8016595971
  - # 8
    frequency:     8.8473838846
  - # 9
    frequency:     9.2530842678
  - # 10
    frequency:     9.2679729184
  - # 11
    frequency:    10.0283671572
  - # 12
    frequency:    10.0314022583

- q-position: [    0.2812500,    0.2187500,    0.0312500 ]
  distance_from_gamma:  0.131815461
  weight: 8    
  band:
  - # 1
    frequency:     2.6737282896
  - # 2
    frequency:     2.8257927498
  - # 3
    frequency:     3.1721164284
  - # 4
    frequency:     3.2454939560
  - # 5
    frequency:     5.0298282142
  - # 6
    frequency:     5.7259979945
  - # 7
    frequency:     8.8526431230
  - # 8
    frequency:     8.8926971665
  - # 9
    frequency:     9.2787833119
  - # 10
    frequency:     9.4420932943
  - # 11
    frequency:     9.9359683360
  - # 12
    frequency:    10.1082106781

- q-position: [    0.3437500,    0.2187500,    0.0312500 ]
  distance_from_gamma:  0.149096551
  weight: 8    
  band:
  - # 1
    frequency:     2.8440727586
  - # 2
    frequency:     2.9516024465
  - # 3
    frequency:     3.1444471221
  - # 4
    frequency:     3.2813540476
  - # 5
    frequency:     5.2722912364
  - # 6
    frequency:     5.6768477911
  - # 7
    frequency:     8.8681267639
  - # 8
    frequency:     8.9250161223
  - # 9
    frequency:     9.2929341180
  - # 10
    frequency:     9.6033838070
  - # 11
    frequency:     9.8179633236
  - # 12
    frequency:    10.1756783406

- q-position: [   -0.5937500,    0.2187500,    0.0312500 ]
  distance_from_gamma:  0.157881939
  weight: 8    
  band:
  - # 1
    frequency:     2.8925943367
  - # 2
    frequency:     2.9791848228
  - # 3
    frequency:     3.1096703363
  - # 4
    frequency:     3.3010391863
  - # 5
    frequency:     5.3404397068
  - # 6
    frequency:     5.6486350891
  - # 7
    frequency:     8.8742627155
  - # 8
    frequency:     8.9268038085
  - # 9
    frequency:     9.2980774828
  - # 10
    frequency:     9.6726630227
  - # 11
    frequency:     9.7561975514
  - # 12
    frequency:    10.1912417642

- q-position: [   -0.5312500,    0.2187500,    0.0312500 ]
  distance_from_gamma:  0.140401749
  weight: 8    
  band:
  - # 1
    frequency:     2.7673320617
  - # 2
    frequency:     2.9008693746
  - # 3
    frequency:     3.1855284476
  - # 4
    frequency:     3.2458330632
  - # 5
    frequency:     5.1631358689
  - # 6
    frequency:     5.7073932398
  - # 7
    frequency:     8.8600881294
  - # 8
    frequency:     8.9151749453
  - # 9
    frequency:     9.2856327452
  - # 10
    frequency:     9.5257648436
  - # 11
    frequency:     9.8791762126
  - # 12
    frequency:    10.1466183570

- q-position: [   -0.4687500,    0.2187500,    0.0312500 ]
  distance_from_gamma:  0.123360349
  weight: 8    
  band:
  - # 1
    frequency:     2.5672516955
  - # 2
    frequency:     2.7252423774
  - # 3
    frequency:     3.0997409370
  - # 4
    frequency:     3.2829368116
  - # 5
    frequency:     4.8799759977
  - # 6
    frequency:     5.7289715882
  - # 7
    frequency:     8.8407403637
  - # 8
    frequency:     8.8623389392
  - # 9
    frequency:     9.2709977864
  - # 10
    frequency:     9.3536979991
  - # 11
    frequency:     9.9868546486
  - # 12
    frequency:    10.0665372285

- q-position: [   -0.4062500,    0.2187500,    0.0312500 ]
  distance_from_gamma:  0.106967660