 vasp.6.4.3 19Mar24 (build Jul  1 2025 23:09:51) complex                         
 executed on             LinuxGNU date 2025.12.31  15:18:40
 running   14 mpi-ranks, with   14 threads/rank, on    1 nodes
 distrk:  each k-point on   14 cores,    1 groups
 distr:  one band on NCORE=   1 cores,   14 groups


--------------------------------------------------------------------------------------------------------


 INCAR:
   GGA = PE
   PREC = Accurate
   ENCUT = 520
   KSPACING = 0.3
   ISMEAR = 0
   SIGMA = 0.03
   EDIFF = 1e-6
   NELM = 120
   NELMIN = 8
   ISIF = 2
   IBRION = 1
   EDIFFG = -1e-3
   NSW = 200

 POTCAR:    PAW_PBE Zn 06Sep2000                  
 POTCAR:    PAW_PBE S 06Sep2000                   
 POTCAR:    PAW_PBE Zn 06Sep2000                  
   SHA256 =  501fddbd8274dd8e9725d4f3de27861d7f1e553a7e18441bc79fed8f346e7f23 Zn/POTCAR             
   COPYR  = (c) Copyright 06Sep2000 Georg Kresse                                                    
   COPYR  = This file is part of the software VASP. Any use, copying, and all other rights are regul
   COPYR  = If you do not have a valid VASP license, you may not use, copy or distribute this file. 
   VRHFIN =Zn: d10 p2                                                                               
   LEXCH  = PE                                                                                      
   EATOM  =  1748.8345 eV,  128.5357 Ry                                                             
                                                                                                    
   TITEL  = PAW_PBE Zn 06Sep2000                                                                    
   LULTRA =        F    use ultrasoft PP ?                                                          
   IUNSCR =        1    unscreen: 0-lin 1-nonlin 2-no                                               
   RPACOR =    2.000    partial core radius                                                         
   POMASS =   65.390; ZVAL   =   12.000    mass and valenz                                          
   RCORE  =    2.300    outmost cutoff radius                                                       
   RWIGS  =    2.400; RWIGS  =    1.270    wigner-seitz radius (au A)                               
   ENMAX  =  276.723; ENMIN  =  207.542 eV                                                          
   RCLOC  =    1.828    cutoff for local pot                                                        
   LCOR   =        T    correct aug charges                                                         
   LPAW   =        T    paw PP                                                                      
   EAUG   =  575.892                                                                                
   DEXC   =    0.000                                                                                
   RMAX   =    2.347    core radius for proj-oper                                                   
   RAUG   =    1.300    factor for augmentation sphere                                              
   RDEP   =    2.324    radius for radial grids                                                     
   RDEPT  =    1.788    core radius for aug-charge                                                  
                                                                                                    
   Atomic configuration                                                                             
    9 entries                                                                                       
     n  l   j            E        occ.                                                              
     1  0  0.50     -9524.6913   2.0000                                                             
     2  0  0.50     -1158.1882   2.0000                                                             
     2  1  1.50     -1003.8506   6.0000                                                             
     3  0  0.50      -129.2194   2.0000                                                             
     3  1  1.50       -83.3890   6.0000                                                             
     3  2  2.50       -10.1410  10.0000                                                             
     4  0  0.50        -5.9785   2.0000                                                             
     4  1  0.50        -4.0817   0.0000                                                             
     4  3  2.50        -1.3606   0.0000                                                             
   Description                                                                                      
     l       E           TYP  RCUT    TYP  RCUT                                                     
     2    -10.1410010     23  2.300                                                                 
     2    -11.5015836     23  2.300                                                                 
     0     -5.9785163     23  2.300                                                                 
     0      1.1858015     23  2.300                                                                 
     1     -2.7211652     23  2.300                                                                 
     1     13.2444212     23  2.300                                                                 
  local pseudopotential read in
  partial core-charges read in
  partial kinetic energy density read in
  atomic valenz-charges read in
  non local Contribution for L=           2  read in
    real space projection operators read in
  non local Contribution for L=           2  read in
    real space projection operators read in
  non local Contribution for L=           0  read in
    real space projection operators read in
  non local Contribution for L=           0  read in
    real space projection operators read in
  non local Contribution for L=           1  read in
    real space projection operators read in
  non local Contribution for L=           1  read in
    real space projection operators read in
    PAW grid and wavefunctions read in

   number of l-projection  operators is LMAX  =           6
   number of lm-projection operators is LMMAX =          18

 POTCAR:    PAW_PBE S 06Sep2000                   
   SHA256 =  0fc7481fb0695f01bdc6462160264c5c84044ae9ec85a907d398b887a2bc3132 S/POTCAR              
   COPYR  = (c) Copyright 06Sep2000 Georg Kresse                                                    
   COPYR  = This file is part of the software VASP. Any use, copying, and all other rights are regul
   COPYR  = If you do not have a valid VASP license, you may not use, copy or distribute this file. 
   VRHFIN =S : s2p4                                                                                 
   LEXCH  = PE                                                                                      
   EATOM  =   276.8230 eV,   20.3459 Ry                                                             
                                                                                                    
   TITEL  = PAW_PBE S 06Sep2000                                                                     
   LULTRA =        F    use ultrasoft PP ?                                                          
   IUNSCR =        1    unscreen: 0-lin 1-nonlin 2-no                                               
   RPACOR =    1.500    partial core radius                                                         
   POMASS =   32.066; ZVAL   =    6.000    mass and valenz                                          
   RCORE  =    1.900    outmost cutoff radius                                                       
   RWIGS  =    2.200; RWIGS  =    1.164    wigner-seitz radius (au A)                               
   ENMAX  =  258.689; ENMIN  =  194.016 eV                                                          
   ICORE  =        2    local potential                                                             
   LCOR   =        T    correct aug charges                                                         
   LPAW   =        T    paw PP                                                                      
   EAUG   =  335.092                                                                                
   DEXC   =    0.000                                                                                
   RMAX   =    1.942    core radius for proj-oper                                                   
   RAUG   =    1.300    factor for augmentation sphere                                              
   RDEP   =    1.954    radius for radial grids                                                     
   RDEPT  =    1.744    core radius for aug-charge                                                  
                                                                                                    
   Atomic configuration                                                                             
    6 entries                                                                                       
     n  l   j            E        occ.                                                              
     1  0  0.50     -2405.8406   2.0000                                                             
     2  0  0.50      -211.7007   2.0000                                                             
     2  1  1.50      -156.4958   6.0000                                                             
     3  0  0.50       -17.2562   2.0000                                                             
     3  1  0.50        -7.0085   4.0000                                                             
     3  2  1.50        -6.8029   0.0000                                                             
   Description                                                                                      
     l       E           TYP  RCUT    TYP  RCUT                                                     
     0    -17.2561641     23  1.900                                                                 
     0    -15.8743224     23  1.900                                                                 
     1     -7.0085400     23  1.900                                                                 
     1     -2.7779785     23  1.900                                                                 
     2     -6.8029130     23  1.900                                                                 
  local pseudopotential read in
  partial core-charges read in
  partial kinetic energy density read in
  atomic valenz-charges read in
  non local Contribution for L=           0  read in
    real space projection operators read in
  non local Contribution for L=           0  read in
    real space projection operators read in
  non local Contribution for L=           1  read in
    real space projection operators read in
  non local Contribution for L=           1  read in
    real space projection operators read in
    PAW grid and wavefunctions read in

   number of l-projection  operators is LMAX  =           4
   number of lm-projection operators is LMMAX =           8

  PAW_PBE Zn 06Sep2000                  :
 energy of atom  1       EATOM=-1748.8345
 kinetic energy error for atom=    0.0029 (will be added to EATOM!!)
  PAW_PBE S 06Sep2000                   :
 energy of atom  2       EATOM= -276.8230
 kinetic energy error for atom=    0.0016 (will be added to EATOM!!)


 POSCAR: Zn S
  positions in cartesian coordinates
  velocities in cartesian coordinates


 exchange-correlation table for PE
   RHO(1)=    0.500       N(1)  =     2000
   RHO(2)=  100.500       N(2)  =     4000



--------------------------------------------------------------------------------------------------------


 ion  position               nearest neighbor table
   1  0.333  0.667  0.000-   4 2.29   4 2.29   4 2.29   3 2.29
   2  0.667  0.333  0.500-   3 2.29   3 2.29   3 2.29   4 2.29
   3  0.333  0.667  0.375-   2 2.29   2 2.29   2 2.29   1 2.29
   4  0.667  0.333  0.875-   1 2.29   1 2.29   1 2.29   2 2.29

  LATTYP: Found a hexagonal cell.
 ALAT       =     3.7331853182
 C/A-ratio  =     1.6395977843
  
  Lattice vectors:
  
 A1 = (   1.8665926591,  -3.2330333226,  -0.0000000000)
 A2 = (   1.8665926591,   3.2330333226,   0.0000000000)
 A3 = (   0.0000000000,   0.0000000000,   6.1209223763)


Analysis of symmetry for initial positions (statically):
=====================================================================
 Subroutine PRICEL returns:
 Original cell was already a primitive cell.
 

 Routine SETGRP: Setting up the symmetry group for a 
 hexagonal supercell.


 Subroutine GETGRP returns: Found 12 space group operations
 (whereof  6 operations were pure point group operations)
 out of a pool of 24 trial point group operations.


The static configuration has the point symmetry C_3v.
 The point group associated with its full space group is C_6v.


Analysis of symmetry for dynamics (positions and initial velocities):
=====================================================================
 Subroutine PRICEL returns:
 Original cell was already a primitive cell.
 

 Routine SETGRP: Setting up the symmetry group for a 
 hexagonal supercell.


 Subroutine GETGRP returns: Found 12 space group operations
 (whereof  6 operations were pure point group operations)
 out of a pool of 24 trial point group operations.


The dynamic configuration has the point symmetry C_3v.
 The point group associated with its full space group is C_6v.


 Subroutine INISYM returns: Found 12 space group operations
 (whereof  6 operations are pure point group operations),
 and found     1 'primitive' translations


----------------------------------------------------------------------------------------

                                     Primitive cell                                     

  volume of cell :      73.8765

  direct lattice vectors                    reciprocal lattice vectors
     1.866592659 -3.233033323 -0.000000000     0.267867763 -0.154653525  0.000000000
     1.866592659  3.233033323  0.000000000     0.267867763  0.154653525 -0.000000000
     0.000000000  0.000000000  6.120922376     0.000000000 -0.000000000  0.163374070

  length of vectors
     3.733185318  3.733185318  6.120922376     0.309307050  0.309307050  0.163374070

  position of ions in fractional coordinates (direct lattice)
     0.333333333  0.666666667  0.000260133
     0.666666667  0.333333333  0.500260133
     0.333333333  0.666666667  0.374739867
     0.666666667  0.333333333  0.874739867

  ion indices of the primitive-cell ions
   primitive index   ion index
                 1           1
                 2           2
                 3           3
                 4           4

----------------------------------------------------------------------------------------



 KPOINTS: Automatic kpoint scheme                 

Automatic generation of k-mesh.
 Grid dimensions read from file:
 generate k-points for:    6    6    4

 Generating k-lattice:

  Cartesian coordinates                     Fractional coordinates (reciprocal lattice)
     0.044644627 -0.025775588  0.000000000     0.166666667  0.000000000  0.000000000
     0.044644627  0.025775588 -0.000000000     0.000000000  0.166666667  0.000000000
     0.000000000 -0.000000000  0.040843517     0.000000000  0.000000000  0.250000000

  Length of vectors
     0.051551175  0.051551175  0.040843517

  Shift w.r.t. Gamma in fractional coordinates (k-lattice)
     0.000000000  0.000000000  0.000000000

 
 Subroutine IBZKPT returns following result:
 ===========================================
 
 Found     21 irreducible k-points:
 
 Following reciprocal coordinates:
            Coordinates               Weight
  0.000000  0.000000  0.000000      1.000000
  0.166667  0.000000  0.000000      6.000000
  0.333333  0.000000  0.000000      6.000000
  0.500000  0.000000  0.000000      3.000000
  0.166667  0.166667  0.000000      6.000000
  0.333333  0.166667  0.000000     12.000000
  0.333333  0.333333  0.000000      2.000000
  0.000000  0.000000  0.250000      2.000000
  0.166667  0.000000  0.250000     12.000000
  0.333333  0.000000  0.250000     12.000000
  0.500000  0.000000  0.250000      6.000000
  0.166667  0.166667  0.250000     12.000000
  0.333333  0.166667  0.250000     24.000000
  0.333333  0.333333  0.250000      4.000000
  0.000000  0.000000  0.500000      1.000000
  0.166667  0.000000  0.500000      6.000000
  0.333333  0.000000  0.500000      6.000000
  0.500000  0.000000  0.500000      3.000000
  0.166667  0.166667  0.500000      6.000000
  0.333333  0.166667  0.500000     12.000000
  0.333333  0.333333  0.500000      2.000000
 
 Following cartesian coordinates:
            Coordinates               Weight
  0.000000  0.000000  0.000000      1.000000
  0.044645 -0.025776  0.000000      6.000000
  0.089289 -0.051551  0.000000      6.000000
  0.133934 -0.077327  0.000000      3.000000
  0.089289 -0.000000  0.000000      6.000000
  0.133934 -0.025776  0.000000     12.000000
  0.178579 -0.000000  0.000000      2.000000
  0.000000  0.000000  0.040844      2.000000
  0.044645 -0.025776  0.040844     12.000000
  0.089289 -0.051551  0.040844     12.000000
  0.133934 -0.077327  0.040844      6.000000
  0.089289 -0.000000  0.040844     12.000000
  0.133934 -0.025776  0.040844     24.000000
  0.178579 -0.000000  0.040844      4.000000
  0.000000  0.000000  0.081687      1.000000
  0.044645 -0.025776  0.081687      6.000000
  0.089289 -0.051551  0.081687      6.000000
  0.133934 -0.077327  0.081687      3.000000
  0.089289 -0.000000  0.081687      6.000000
  0.133934 -0.025776  0.081687     12.000000
  0.178579 -0.000000  0.081687      2.000000
 


--------------------------------------------------------------------------------------------------------




 Dimension of arrays:
   k-points           NKPTS =     21   k-points in BZ     NKDIM =     21   number of bands    NBANDS=     28
   number of dos      NEDOS =    301   number of ions     NIONS =      4
   non local maximal  LDIM  =      6   non local SUM 2l+1 LMDIM =     18
   total plane-waves  NPLWV =  37632
   max r-space proj   IRMAX =      1   max aug-charges    IRDMAX=  16246
   dimension x,y,z NGX =    28 NGY =   28 NGZ =   48
   dimension x,y,z NGXF=    56 NGYF=   56 NGZF=   96
   support grid    NGXF=    56 NGYF=   56 NGZF=   96
   ions per type =               2   2
   NGX,Y,Z   is equivalent  to a cutoff of  12.47, 12.47, 13.04 a.u.
   NGXF,Y,Z  is equivalent  to a cutoff of  24.94, 24.94, 26.07 a.u.

 SYSTEM =  unknown system                          
 POSCAR =  Zn S                                    

 Startparameter for this run:
   NWRITE =      2    write-flag & timer
   PREC   = accura    normal or accurate (medium, high low for compatibility)
   ISTART =      0    job   : 0-new  1-cont  2-samecut
   ICHARG =      2    charge: 1-file 2-atom 10-const
   ISPIN  =      1    spin polarized calculation?
   LNONCOLLINEAR =      F non collinear calculations
   LSORBIT =      F    spin-orbit coupling
   INIWAV =      1    electr: 0-lowe 1-rand  2-diag
   LASPH  =      F    aspherical Exc in radial PAW
 Electronic Relaxation 1
   ENCUT  =  520.0 eV  38.22 Ry    6.18 a.u.   6.94  6.94 11.38*2*pi/ulx,y,z
   ENINI  =  520.0     initial cutoff
   ENAUG  =  575.9 eV  augmentation charge cutoff
   NELM   =    120;   NELMIN=  8; NELMDL= -5     # of ELM steps 
   EDIFF  = 0.1E-05   stopping-criterion for ELM
   LREAL  =      F    real-space projection
   NLSPLINE    = F    spline interpolate recip. space projectors
   LCOMPAT=      F    compatible to vasp.4.4
   GGA_COMPAT  = T    GGA compatible to vasp.4.4-vasp.4.6
   LMAXPAW     = -100 max onsite density
   LMAXMIX     =    2 max onsite mixed and CHGCAR
   VOSKOWN=      0    Vosko Wilk Nusair interpolation
   ROPT   =    0.00000   0.00000
 Ionic relaxation
   EDIFFG = -.1E-02   stopping-criterion for IOM
   NSW    =    200    number of steps for IOM
   NBLOCK =      1;   KBLOCK =    200    inner block; outer block 
   IBRION =      1    ionic relax: 0-MD 1-quasi-New 2-CG
   NFREE  =      0    steps in history (QN), initial steepest desc. (CG)
   ISIF   =      2    stress and relaxation
   IWAVPR =     11    prediction:  0-non 1-charg 2-wave 3-comb
   ISYM   =      2    0-nonsym 1-usesym 2-fastsym
   LCORR  =      T    Harris-Foulkes like correction to forces

   POTIM  = 0.5000    time-step for ionic-motion
   TEIN   =    0.0    initial temperature
   TEBEG  =    0.0;   TEEND  =   0.0 temperature during run
   SMASS  =  -3.00    Nose mass-parameter (am)
   estimated Nose-frequenzy (Omega)   =  0.10E-29 period in steps = 0.13E+47 mass=  -0.318E-27a.u.
   SCALEE = 1.0000    scale energy and forces
   NPACO  =    256;   APACO  = 10.0  distance and # of slots for P.C.
   PSTRESS=    0.0 pullay stress

  Mass of Ions in am
   POMASS =  65.39 32.07
  Ionic Valenz
   ZVAL   =  12.00  6.00
  Atomic Wigner-Seitz radii
   RWIGS  =  -1.00 -1.00
  virtual crystal weights 
   VCA    =   1.00  1.00
   NELECT =      36.0000    total number of electrons
   NUPDOWN=      -1.0000    fix difference up-down

 DOS related values:
   EMIN   =  10.00;   EMAX   =-10.00  energy-range for DOS
   EFERMI =   0.00;   METHOD = LEGACY      
   ISMEAR =     0;   SIGMA  =   0.03  broadening in eV -4-tet -1-fermi 0-gaus

 Electronic relaxation 2 (details)
   IALGO  =     38    algorithm
   LDIAG  =      T    sub-space diagonalisation (order eigenvalues)
   LSUBROT=      F    optimize rotation matrix (better conditioning)
   TURBO    =      0    0=normal 1=particle mesh
   IRESTART =      0    0=no restart 2=restart with 2 vectors
   NREBOOT  =      0    no. of reboots
   NMIN     =      0    reboot dimension
   EREF     =   0.00    reference energy to select bands
   IMIX   =      4    mixing-type and parameters
     AMIX     =   0.40;   BMIX     =  1.00
     AMIX_MAG =   1.60;   BMIX_MAG =  1.00
     AMIN     =   0.10
     WC   =   100.;   INIMIX=   1;  MIXPRE=   1;  MAXMIX= -45

 Intra band minimization:
   WEIMIN = 0.0010     energy-eigenvalue tresh-hold
   EBREAK =  0.89E-08  absolut break condition
   DEPER  =   0.30     relativ break condition  

   TIME   =   0.40     timestep for ELM

  volume/ion in A,a.u.               =      18.47       124.64
  Fermi-wavevector in a.u.,A,eV,Ry     =   1.288270  2.434477 22.580758  1.659639
  Thomas-Fermi vector in A             =   2.420234

 Write flags
   LWAVE        =      T    write WAVECAR
   LDOWNSAMPLE  =      F    k-point downsampling of WAVECAR
   LCHARG       =      T    write CHGCAR
   LVTOT        =      F    write LOCPOT, total local potential
   LVHAR        =      F    write LOCPOT, Hartree potential only
   WRT_POTENTIAL= false  ! write potential to hdf5 file
   LELF         =      F    write electronic localiz. function (ELF)
   LORBIT       =      0    0 simple, 1 ext, 2 COOP (PROOUT), +10 PAW based schemes


 Dipole corrections
   LMONO      =      F    monopole corrections only (constant potential shift)
   LDIPOL     =      F    correct potential (dipole corrections)
   IDIPOL     =      0    1-x, 2-y, 3-z, 4-all directions 
   EPSILON    =  1.0000000 bulk dielectric constant
   LVACPOTAV  =      F  vacuum potentials using an averaging scheme for the charge density
   VACPOTFLAT =  0.1000000 required flatness to determine vacuum potential
 Exchange correlation treatment:
   GGA     = PE    functional components
   XC_C    = 1    coefficients multiplying the functional components
   LIBXC   =     F    Libxc                    
   VOSKOWN =     0    Vosko Wilk Nusair interpolation
   LHFCALC =     F    Hartree Fock is set to
   LHFONE  =     F    Hartree Fock one center treatment
   AEXX    =    0.0000 exact exchange contribution

 Parameters of functionals:
   PE:
     No parameter

 Van der Waals corrections
   IVDW    =     0    specifies the selected vdW correction

 Linear response parameters
   LEPSILON=     F    determine dielectric tensor
   LRPA    =     F    only Hartree local field effects (RPA)
   LNABLA  =     F    use nabla operator in PAW spheres
   LVEL    =     F    velocity operator in full k-point grid
   CSHIFT  =0.1000    complex shift for real part using Kramers Kronig
   OMEGAMAX=  -1.0    maximum frequency
   DEG_THRESHOLD= 0.2000000E-02 threshold for treating states as degnerate
   RTIME   =   -0.100 relaxation time in fs
  (WPLASMAI=    0.000 imaginary part of plasma frequency in eV, 0.658/RTIME)
   DFIELD  = 0.0000000 0.0000000 0.0000000 field for delta impulse in time

  Optional k-point grid parameters
   LKPOINTS_OPT  =     F    use optional k-point grid
   KPOINTS_OPT_MODE=     1    mode for optional k-point grid

 Orbital magnetization related:
   ORBITALMAG=     F  switch on orbital magnetization
   LCHIMAG   =     F  perturbation theory with respect to B field
   DQ        =  0.001000  dq finite difference perturbation B field
   LLRAUG    =     F  two centre corrections for induced B field
   LBONE     =     F  B-component reconstruction in AE one-centre
   LVGVCALC  =     T  calculate vGv susceptibility
   LVGVAPPL  =     F  apply vGv susceptibility instead of pGv for G=0

 Random number generation:
   RANDOM_GENERATOR = DEFAULT
   PCG_SEED         = not used


--------------------------------------------------------------------------------------------------------


 quasi-Newton-method for relaxation of ions
 charge density and potential will be updated during run
 non-spin polarized calculation
 Variant of blocked Davidson
 Davidson routine will perform the subspace rotation
 perform sub-space diagonalisation
    after iterative eigenvector-optimisation
 modified Broyden-mixing scheme, WC =      100.0
 initial mixing is a Kerker type mixing with AMIX =  0.4000 and BMIX =      1.0000
 Hartree-type preconditioning will be used
 using additional bands           10
 reciprocal scheme for non local part
 use partial core corrections
 calculate Harris-corrections to forces   (improved forces if not selfconsistent)
 use gradient corrections 
 use of overlap-Matrix (Vanderbilt PP)
 Gauss-broadening in eV      SIGMA  =   0.03


--------------------------------------------------------------------------------------------------------


  energy-cutoff  :      520.00
  volume of cell :       73.88
      direct lattice vectors                 reciprocal lattice vectors
     1.866592659 -3.233033323 -0.000000000     0.267867763 -0.154653525  0.000000000
     1.866592659  3.233033323  0.000000000     0.267867763  0.154653525 -0.000000000
     0.000000000  0.000000000  6.120922376     0.000000000 -0.000000000  0.163374070

  length of vectors
     3.733185318  3.733185318  6.120922376     0.309307050  0.309307050  0.163374070



 k-points in units of 2pi/SCALE and weight: Automatic kpoint scheme                 
   0.00000000 -0.00000000  0.00000000       0.007
   0.04464463 -0.02577559  0.00000000       0.042
   0.08928925 -0.05155118  0.00000000       0.042
   0.13393388 -0.07732676  0.00000000       0.021
   0.08928925  0.00000000  0.00000000       0.042
   0.13393388 -0.02577559  0.00000000       0.083
   0.17857851  0.00000000  0.00000000       0.014
   0.00000000 -0.00000000  0.04084352       0.014
   0.04464463 -0.02577559  0.04084352       0.083
   0.08928925 -0.05155118  0.04084352       0.083
   0.13393388 -0.07732676  0.04084352       0.042
   0.08928925  0.00000000  0.04084352       0.083
   0.13393388 -0.02577559  0.04084352       0.167
   0.17857851  0.00000000  0.04084352       0.028
   0.00000000 -0.00000000  0.08168703       0.007
   0.04464463 -0.02577559  0.08168703       0.042
   0.08928925 -0.05155118  0.08168703       0.042
   0.13393388 -0.07732676  0.08168703       0.021
   0.08928925  0.00000000  0.08168703       0.042
   0.13393388 -0.02577559  0.08168703       0.083
   0.17857851  0.00000000  0.08168703       0.014

 k-points in reciprocal lattice and weights: Automatic kpoint scheme                 
   0.00000000  0.00000000  0.00000000       0.007
   0.16666667  0.00000000  0.00000000       0.042
   0.33333333  0.00000000  0.00000000       0.042
   0.50000000  0.00000000  0.00000000       0.021
   0.16666667  0.16666667  0.00000000       0.042
   0.33333333  0.16666667  0.00000000       0.083
   0.33333333  0.33333333  0.00000000       0.014
   0.00000000  0.00000000  0.25000000       0.014
   0.16666667  0.00000000  0.25000000       0.083
   0.33333333  0.00000000  0.25000000       0.083
   0.50000000  0.00000000  0.25000000       0.042
   0.16666667  0.16666667  0.25000000       0.083
   0.33333333  0.16666667  0.25000000       0.167
   0.33333333  0.33333333  0.25000000       0.028
   0.00000000  0.00000000  0.50000000       0.007
   0.16666667  0.00000000  0.50000000       0.042
   0.33333333  0.00000000  0.50000000       0.042
   0.50000000  0.00000000  0.50000000       0.021
   0.16666667  0.16666667  0.50000000       0.042
   0.33333333  0.16666667  0.50000000       0.083
   0.33333333  0.33333333  0.50000000       0.014

 position of ions in fractional coordinates (direct lattice) 
   0.33333333  0.66666667  0.00026013
   0.66666667  0.33333333  0.50026013
   0.33333333  0.66666667  0.37473987
   0.66666667  0.33333333  0.87473987

 position of ions in cartesian coordinates  (Angst):
   1.86659266  1.07767777  0.00159226
   1.86659266 -1.07767777  3.06205344
   1.86659266  1.07767777  2.29375363
   1.86659266 -1.07767777  5.35421482



--------------------------------------------------------------------------------------------------------


 k-point     1 :   0.0000 0.0000 0.0000  plane waves:    1973
 k-point     2 :   0.1667 0.0000 0.0000  plane waves:    1970
 k-point     3 :   0.3333 0.0000 0.0000  plane waves:    1994
 k-point     4 :   0.5000 0.0000 0.0000  plane waves:    1986
 k-point     5 :   0.1667 0.1667 0.0000  plane waves:    2003
 k-point     6 :   0.3333 0.1667 0.0000  plane waves:    1991
 k-point     7 :   0.3333 0.3333 0.0000  plane waves:    1995
 k-point     8 :   0.0000 0.0000 0.2500  plane waves:    1967
 k-point     9 :   0.1667 0.0000 0.2500  plane waves:    1979
 k-point    10 :   0.3333 0.0000 0.2500  plane waves:    1987
 k-point    11 :   0.5000 0.0000 0.2500  plane waves:    1990
 k-point    12 :   0.1667 0.1667 0.2500  plane waves:    1989
 k-point    13 :   0.3333 0.1667 0.2500  plane waves:    1995
 k-point    14 :   0.3333 0.3333 0.2500  plane waves:    1980
 k-point    15 :   0.0000 0.0000 0.5000  plane waves:    1930
 k-point    16 :   0.1667 0.0000 0.5000  plane waves:    1984
 k-point    17 :   0.3333 0.0000 0.5000  plane waves:    1996
 k-point    18 :   0.5000 0.0000 0.5000  plane waves:    2012
 k-point    19 :   0.1667 0.1667 0.5000  plane waves:    1972
 k-point    20 :   0.3333 0.1667 0.5000  plane waves:    1992
 k-point    21 :   0.3333 0.3333 0.5000  plane waves:    2010

 maximum and minimum number of plane-waves per node :      2012     1930

 maximum number of plane-waves:      2012
 maximum index in each direction: 
   IXMAX=    6   IYMAX=    6   IZMAX=   11
   IXMIN=   -7   IYMIN=   -7   IZMIN=  -11


 serial   3D FFT for wavefunctions
 parallel 3D FFT for charge:
    minimum data exchange during FFTs selected (reduces bandwidth)


 total amount of memory used by VASP MPI-rank0    47408. kBytes
=======================================================================

   base      :      30000. kBytes
   nonl-proj :      12321. kBytes
   fftplans  :        894. kBytes
   grid      :       2739. kBytes
   one-center:         62. kBytes
   wavefun   :       1392. kBytes

     INWAV:  cpu time      0.0000: real time      0.0000
 Broyden mixing: mesh for mixing (old mesh)
   NGX = 13   NGY = 13   NGZ = 23
  (NGX  = 56   NGY  = 56   NGZ  = 96)
  gives a total of   3887 points

 initial charge density was supplied:
 charge density of overlapping atoms calculated
 number of electron      36.0000000 magnetization 
 keeping initial charge density in first step


--------------------------------------------------------------------------------------------------------


 Maximum index for augmentation-charges         1124 (set IRDMAX)


--------------------------------------------------------------------------------------------------------


 First call to EWALD:  gamma=   0.422
 Maximum number of real-space cells 3x 3x 2
 Maximum number of reciprocal cells 2x 2x 4

    FEWALD:  cpu time      0.2245: real time      0.1770


--------------------------------------- Ionic step        1  -------------------------------------------




--------------------------------------- Iteration      1(   1)  ---------------------------------------


    POTLOK:  cpu time      0.0924: real time      0.1357
    SETDIJ:  cpu time      0.0033: real time      0.0043
     EDDAV:  cpu time      6.8973: real time      6.8858
       DOS:  cpu time      0.0002: real time      0.0002
    --------------------------------------------
      LOOP:  cpu time      6.9932: real time      7.0260

 eigenvalue-minimisations  :  1176
 total energy-change (2. order) : 0.1827855E+03  (-0.1793963E+04)
 number of electron      36.0000000 magnetization 
 augmentation part       36.0000000 magnetization 

 Free energy of the ion-electron system (eV)
  ---------------------------------------------------
  alpha Z        PSCENC =       153.06604141
  Ewald energy   TEWEN  =     -2559.42598856
  -Hartree energ DENC   =     -1352.76393343
  -exchange      EXHF   =         0.00000000
  -V(xc)+E(xc)   XCENC  =       139.30815200
  PAW double counting   =      3345.42656771    -3694.17617221
  entropy T*S    EENTRO =        -0.00223022
  eigenvalues    EBANDS =       100.04705074
  atomic energy  EATOM  =      4051.30602026
  Solvation  Ediel_sol  =         0.00000000
  ---------------------------------------------------
  free energy    TOTEN  =       182.78550771 eV

  energy without entropy =      182.78773793  energy(sigma->0) =      182.78662282


--------------------------------------------------------------------------------------------------------




--------------------------------------- Iteration      1(   2)  ---------------------------------------


     EDDAV:  cpu time      8.3362: real time      8.7148
       DOS:  cpu time      0.0002: real time      0.0002
    --------------------------------------------
      LOOP:  cpu time      8.3363: real time      8.7149

 eigenvalue-minimisations  :  1344
 total energy-change (2. order) :-0.1858455E+03  (-0.1803266E+03)
 number of electron      36.0000000 magnetization 
 augmentation part       36.0000000 magnetization 

 Free energy of the ion-electron system (eV)
  ---------------------------------------------------
  alpha Z        PSCENC =       153.06604141
  Ewald energy   TEWEN  =     -2559.42598856
  -Hartree energ DENC   =     -1352.76393343
  -exchange      EXHF   =         0.00000000
  -V(xc)+E(xc)   XCENC  =       139.30815200
  PAW double counting   =      3345.42656771    -3694.17617221
  entropy T*S    EENTRO =        -0.00000000
  eigenvalues    EBANDS =       -85.80068389
  atomic energy  EATOM  =      4051.30602026
  Solvation  Ediel_sol  =         0.00000000
  ---------------------------------------------------
  free energy    TOTEN  =        -3.05999670 eV

  energy without entropy =       -3.05999670  energy(sigma->0) =       -3.05999670


--------------------------------------------------------------------------------------------------------




--------------------------------------- Iteration      1(   3)  ---------------------------------------


     EDDAV:  cpu time     12.1531: real time     12.3509
       DOS:  cpu time      0.0001: real time      0.0001
    --------------------------------------------
      LOOP:  cpu time     12.1532: real time     12.3510

 eigenvalue-minimisations  :  1470
 total energy-change (2. order) :-0.1122061E+02  (-0.1118986E+02)
 number of electron      36.0000000 magnetization 
 augmentation part       36.0000000 magnetization 

 Free energy of the ion-electron system (eV)
  ---------------------------------------------------
  alpha Z        PSCENC =       153.06604141
  Ewald energy   TEWEN  =     -2559.42598856
  -Hartree energ DENC   =     -1352.76393343
  -exchange      EXHF   =         0.00000000
  -V(xc)+E(xc)   XCENC  =       139.30815200
  PAW double counting   =      3345.42656771    -3694.17617221
  entropy T*S    EENTRO =        -0.00000000
  eigenvalues    EBANDS =       -97.02128935
  atomic energy  EATOM  =      4051.30602026
  Solvation  Ediel_sol  =         0.00000000
  ---------------------------------------------------
  free energy    TOTEN  =       -14.28060216 eV

  energy without entropy =      -14.28060216  energy(sigma->0) =      -14.28060216


--------------------------------------------------------------------------------------------------------




--------------------------------------- Iteration      1(   4)  ---------------------------------------


     EDDAV:  cpu time     11.1023: real time     10.7682
       DOS:  cpu time      0.0001: real time      0.0001
    --------------------------------------------
      LOOP:  cpu time     11.1024: real time     10.7684

 eigenvalue-minimisations  :  1470
 total energy-change (2. order) :-0.1212649E+00  (-0.1212459E+00)
 number of electron      36.0000000 magnetization 
 augmentation part       36.0000000 magnetization 

 Free energy of the ion-electron system (eV)
  ---------------------------------------------------
  alpha Z        PSCENC =       153.06604141
  Ewald energy   TEWEN  =     -2559.42598856
  -Hartree energ DENC   =     -1352.76393343
  -exchange      EXHF   =         0.00000000
  -V(xc)+E(xc)   XCENC  =       139.30815200
  PAW double counting   =      3345.42656771    -3694.17617221
  entropy T*S    EENTRO =        -0.00000000
  eigenvalues    EBANDS =       -97.14255422
  atomic energy  EATOM  =      4051.30602026
  Solvation  Ediel_sol  =         0.00000000
  ---------------------------------------------------
  free energy    TOTEN  =       -14.40186703 eV

  energy without entropy =      -14.40186703  energy(sigma->0) =      -14.40186703


--------------------------------------------------------------------------------------------------------




--------------------------------------- Iteration      1(   5)  ---------------------------------------


     EDDAV:  cpu time     12.0263: real time     11.5450
       DOS:  cpu time      0.0006: real time      0.0006
    CHARGE:  cpu time      0.2142: real time      0.2082
    MIXING:  cpu time      0.0056: real time      0.0068
    --------------------------------------------
      LOOP:  cpu time     12.2466: real time     11.7605

 eigenvalue-minimisations  :  1512
 total energy-change (2. order) :-0.1794025E-02  (-0.1793987E-02)
 number of electron      35.9999983 magnetization 
 augmentation part       14.1947587 magnetization 

 Broyden mixing:
  rms(total) = 0.11023E+01    rms(broyden)= 0.11023E+01
  rms(prec ) = 0.13379E+01
  weight for this iteration     100.00

 Free energy of the ion-electron system (eV)
  ---------------------------------------------------
  alpha Z        PSCENC =       153.06604141
  Ewald energy   TEWEN  =     -2559.42598856
  -Hartree energ DENC   =     -1352.76393343
  -exchange      EXHF   =         0.00000000
  -V(xc)+E(xc)   XCENC  =       139.30815200
  PAW double counting   =      3345.42656771    -3694.17617221
  entropy T*S    EENTRO =        -0.00000000
  eigenvalues    EBANDS =       -97.14434825
  atomic energy  EATOM  =      4051.30602026
  Solvation  Ediel_sol  =         0.00000000
  ---------------------------------------------------
  free energy    TOTEN  =       -14.40366106 eV

  energy without entropy =      -14.40366106  energy(sigma->0) =      -14.40366106


--------------------------------------------------------------------------------------------------------




--------------------------------------- Iteration      1(   6)  ---------------------------------------


    POTLOK:  cpu time      0.0879: real time      0.0896
    SETDIJ:  cpu time      0.0073: real time      0.0071
     EDDAV:  cpu time     12.8966: real time     12.3034
       DOS:  cpu time      0.0001: real time      0.0001
    CHARGE:  cpu time      0.2123: real time      0.1970
    MIXING:  cpu time      0.0022: real time      0.0056
    --------------------------------------------
      LOOP:  cpu time     13.2065: real time     12.6028

 eigenvalue-minimisations  :  1610
 total energy-change (2. order) : 0.8367069E+00  (-0.1812281E+00)
 number of electron      35.9999983 magnetization 
 augmentation part       14.4402486 magnetization 

 Broyden mixing:
  rms(total) = 0.84222E+00    rms(broyden)= 0.84221E+00
  rms(prec ) = 0.88161E+00
  weight for this iteration     100.00

 eigenvalues of (default mixing * dielectric matrix)
  average eigenvalue GAMMA=   2.2526
  2.2526

 Free energy of the ion-electron system (eV)
  ---------------------------------------------------
  alpha Z        PSCENC =       153.06604141
  Ewald energy   TEWEN  =     -2559.42598856
  -Hartree energ DENC   =     -1338.53362328
  -exchange      EXHF   =         0.00000000
  -V(xc)+E(xc)   XCENC  =       139.20895354
  PAW double counting   =      3663.25937594    -4007.32661391
  entropy T*S    EENTRO =        -0.00000000
  eigenvalues    EBANDS =      -115.12111957
  atomic energy  EATOM  =      4051.30602026
  Solvation  Ediel_sol  =         0.00000000
  ---------------------------------------------------
  free energy    TOTEN  =       -13.56695416 eV

  energy without entropy =      -13.56695416  energy(sigma->0) =      -13.56695416


--------------------------------------------------------------------------------------------------------




--------------------------------------- Iteration      1(   7)  ---------------------------------------


    POTLOK:  cpu time      0.0892: real time      0.1066
    SETDIJ:  cpu time      0.0067: real time      0.0055
     EDDAV:  cpu time      7.3966: real time      7.4773
       DOS:  cpu time      0.0001: real time      0.0001
    CHARGE:  cpu time      0.2574: real time      0.2048
    MIXING:  cpu time      0.0071: real time      0.0060
    --------------------------------------------
      LOOP:  cpu time      7.7571: real time      7.8003

 eigenvalue-minimisations  :  1246
 total energy-change (2. order) : 0.3451254E-01  (-0.9014120E-01)
 number of electron      35.9999983 magnetization 
 augmentation part       14.4067894 magnetization 

 Broyden mixing:
  rms(total) = 0.36636E+00    rms(broyden)= 0.36636E+00
  rms(prec ) = 0.37846E+00
  weight for this iteration     100.00

 eigenvalues of (default mixing * dielectric matrix)
  average eigenvalue GAMMA=   1.7509
  0.8939  2.6078

 Free energy of the ion-electron system (eV)
  ---------------------------------------------------
  alpha Z        PSCENC =       153.06604141
  Ewald energy   TEWEN  =     -2559.42598856
  -Hartree energ DENC   =     -1341.48955012
  -exchange      EXHF   =         0.00000000
  -V(xc)+E(xc)   XCENC  =       139.66788019
  PAW double counting   =      4132.45981739    -4482.43405873
  entropy T*S    EENTRO =        -0.00000000
  eigenvalues    EBANDS =      -106.68260347
  atomic energy  EATOM  =      4051.30602026
  Solvation  Ediel_sol  =         0.00000000
  ---------------------------------------------------
  free energy    TOTEN  =       -13.53244163 eV

  energy without entropy =      -13.53244163  energy(sigma->0) =      -13.53244163


--------------------------------------------------------------------------------------------------------




--------------------------------------- Iteration      1(   8)  ---------------------------------------


    POTLOK:  cpu time      0.1091: real time      0.0949
    SETDIJ:  cpu time      0.0072: real time      0.0073
     EDDAV:  cpu time     10.2384: real time     10.0278
       DOS:  cpu time      0.0001: real time      0.0001
    CHARGE:  cpu time      0.2064: real time      0.2041
    MIXING:  cpu time      0.0023: real time      0.0056
    --------------------------------------------
      LOOP:  cpu time     10.5635: real time     10.3398

 eigenvalue-minimisations  :  1414
 total energy-change (2. order) : 0.1913468E-02  (-0.1684888E-02)
 number of electron      35.9999983 magnetization 
 augmentation part       14.4114259 magnetization 

 Broyden mixing:
  rms(total) = 0.80430E-01    rms(broyden)= 0.80430E-01
  rms(prec ) = 0.88056E-01
  weight for this iteration     100.00

 eigenvalues of (default mixing * dielectric matrix)
  average eigenvalue GAMMA=   1.5835
  2.4689  0.9738  1.3079

 Free energy of the ion-electron system (eV)
  ---------------------------------------------------
  alpha Z        PSCENC =       153.06604141
  Ewald energy   TEWEN  =     -2559.42598856
  -Hartree energ DENC   =     -1339.32157734
  -exchange      EXHF   =         0.00000000
  -V(xc)+E(xc)   XCENC  =       139.64137505
  PAW double counting   =      4452.20185234    -4803.35157168
  entropy T*S    EENTRO =        -0.00000000
  eigenvalues    EBANDS =      -107.64667964
  atomic energy  EATOM  =      4051.30602026
  Solvation  Ediel_sol  =         0.00000000
  ---------------------------------------------------
  free energy    TOTEN  =       -13.53052816 eV

  energy without entropy =      -13.53052816  energy(sigma->0) =      -13.53052816


--------------------------------------------------------------------------------------------------------




--------------------------------------- Iteration      1(   9)  ---------------------------------------


    POTLOK:  cpu time      0.0801: real time      0.0972
    SETDIJ:  cpu time      0.0068: real time      0.0055
     EDDAV:  cpu time     10.1695: real time     10.1819
       DOS:  cpu time      0.0001: real time      0.0001
    CHARGE:  cpu time      0.2676: real time      0.2085
    MIXING:  cpu time      0.0055: real time      0.0057
    --------------------------------------------
      LOOP:  cpu time     10.5297: real time     10.4988

 eigenvalue-minimisations  :  1470
 total energy-change (2. order) : 0.5866337E-03  (-0.5972167E-03)
 number of electron      35.9999983 magnetization 
 augmentation part       14.4134414 magnetization 

 Broyden mixing:
  rms(total) = 0.12886E-01    rms(broyden)= 0.12886E-01
  rms(prec ) = 0.14928E-01
  weight for this iteration     100.00

 eigenvalues of (default mixing * dielectric matrix)
  average eigenvalue GAMMA=   1.4366
  2.3836  1.3532  1.0048  1.0048

 Free energy of the ion-electron system (eV)
  ---------------------------------------------------
  alpha Z        PSCENC =       153.06604141
  Ewald energy   TEWEN  =     -2559.42598856
  -Hartree energ DENC   =     -1338.56679314
  -exchange      EXHF   =         0.00000000
  -V(xc)+E(xc)   XCENC  =       139.60572791
  PAW double counting   =      4532.93365931    -4884.19139040
  entropy T*S    EENTRO =        -0.00000000
  eigenvalues    EBANDS =      -108.25721833
  atomic energy  EATOM  =      4051.30602026
  Solvation  Ediel_sol  =         0.00000000
  ---------------------------------------------------
  free energy    TOTEN  =       -13.52994152 eV

  energy without entropy =      -13.52994152  energy(sigma->0) =      -13.52994152


--------------------------------------------------------------------------------------------------------




--------------------------------------- Iteration      1(  10)  ---------------------------------------


    POTLOK:  cpu time      0.0774: real time      0.0986
    SETDIJ:  cpu time      0.0022: real time      0.0037
     EDDAV:  cpu time      8.7495: real time      8.7000
       DOS:  cpu time      0.0001: real time      0.0001
    CHARGE:  cpu time      0.2430: real time      0.1974
    MIXING:  cpu time      0.0093: real time      0.0086
    --------------------------------------------
      LOOP:  cpu time      9.0815: real time      9.0083

 eigenvalue-minimisations  :  1358
 total energy-change (2. order) :-0.2131720E-03  (-0.3411529E-04)
 number of electron      35.9999983 magnetization 
 augmentation part       14.4128791 magnetization 

 Broyden mixing:
  rms(total) = 0.64812E-02    rms(broyden)= 0.64812E-02
  rms(prec ) = 0.80285E-02
  weight for this iteration     100.00

 eigenvalues of (default mixing * dielectric matrix)
  average eigenvalue GAMMA=   1.7193
  2.4707  1.0062  1.0983  2.1910  1.8303

 Free energy of the ion-electron system (eV)
  ---------------------------------------------------
  alpha Z        PSCENC =       153.06604141
  Ewald energy   TEWEN  =     -2559.42598856
  -Hartree energ DENC   =     -1338.72038712
  -exchange      EXHF   =         0.00000000
  -V(xc)+E(xc)   XCENC  =       139.60897345
  PAW double counting   =      4518.14490127    -4869.36117056
  entropy T*S    EENTRO =        -0.00000000
  eigenvalues    EBANDS =      -108.14854486
  atomic energy  EATOM  =      4051.30602026
  Solvation  Ediel_sol  =         0.00000000
  ---------------------------------------------------
  free energy    TOTEN  =       -13.53015470 eV

  energy without entropy =      -13.53015470  energy(sigma->0) =      -13.53015470


--------------------------------------------------------------------------------------------------------




--------------------------------------- Iteration      1(  11)  ---------------------------------------


    POTLOK:  cpu time      0.0770: real time      0.1046
    SETDIJ:  cpu time      0.0044: real time      0.0040
     EDDAV:  cpu time      8.9192: real time      9.0562
       DOS:  cpu time      0.0001: real time      0.0001
    CHARGE:  cpu time      0.2441: real time      0.2026
    MIXING:  cpu time      0.0081: real time      0.0068
    --------------------------------------------
      LOOP:  cpu time      9.2530: real time      9.3743

 eigenvalue-minimisations  :  1372
 total energy-change (2. order) :-0.1094819E-03  (-0.1303169E-04)
 number of electron      35.9999983 magnetization 
 augmentation part       14.4132977 magnetization 

 Broyden mixing:
  rms(total) = 0.12580E-02    rms(broyden)= 0.12580E-02
  rms(prec ) = 0.17160E-02
  weight for this iteration     100.00

 eigenvalues of (default mixing * dielectric matrix)
  average eigenvalue GAMMA=   1.6599
  2.5636  2.5636  1.0142  1.0142  1.4020  1.4020

 Free energy of the ion-electron system (eV)
  ---------------------------------------------------
  alpha Z        PSCENC =       153.06604141
  Ewald energy   TEWEN  =     -2559.42598856
  -Hartree energ DENC   =     -1338.81111563
  -exchange      EXHF   =         0.00000000
  -V(xc)+E(xc)   XCENC  =       139.61698769
  PAW double counting   =      4515.27818470    -4866.50300872
  entropy T*S    EENTRO =        -0.00000000
  eigenvalues    EBANDS =      -108.05738533
  atomic energy  EATOM  =      4051.30602026
  Solvation  Ediel_sol  =         0.00000000
  ---------------------------------------------------
  free energy    TOTEN  =       -13.53026418 eV

  energy without entropy =      -13.53026418  energy(sigma->0) =      -13.53026418


--------------------------------------------------------------------------------------------------------




--------------------------------------- Iteration      1(  12)  ---------------------------------------


    POTLOK:  cpu time      0.0801: real time      0.0988
    SETDIJ:  cpu time      0.0013: real time      0.0035
     EDDAV:  cpu time     12.0688: real time     12.2626
       DOS:  cpu time      0.0002: real time      0.0008
    CHARGE:  cpu time      0.1928: real time      0.1958
    MIXING:  cpu time      0.0074: real time      0.0063
    --------------------------------------------
      LOOP:  cpu time     12.3506: real time     12.5678

 eigenvalue-minimisations  :  1582
 total energy-change (2. order) :-0.2481849E-05  (-0.1472939E-05)
 number of electron      35.9999983 magnetization 
 augmentation part       14.4130062 magnetization 

 Broyden mixing:
  rms(total) = 0.31985E-03    rms(broyden)= 0.31985E-03
  rms(prec ) = 0.45803E-03
  weight for this iteration     100.00

 eigenvalues of (default mixing * dielectric matrix)
  average eigenvalue GAMMA=   1.6598
  2.8270  2.4026  1.8435  1.4971  0.9795  0.9795  1.0893

 Free energy of the ion-electron system (eV)
  ---------------------------------------------------
  alpha Z        PSCENC =       153.06604141
  Ewald energy   TEWEN  =     -2559.42598856
  -Hartree energ DENC   =     -1338.82831414
  -exchange      EXHF   =         0.00000000
  -V(xc)+E(xc)   XCENC  =       139.61668105
  PAW double counting   =      4515.62563647    -4866.85981089
  entropy T*S    EENTRO =        -0.00000000
  eigenvalues    EBANDS =      -108.03053227
  atomic energy  EATOM  =      4051.30602026
  Solvation  Ediel_sol  =         0.00000000
  ---------------------------------------------------
  free energy    TOTEN  =       -13.53026666 eV

  energy without entropy =      -13.53026666  energy(sigma->0) =      -13.53026666


--------------------------------------------------------------------------------------------------------




--------------------------------------- Iteration      1(  13)  ---------------------------------------


    POTLOK:  cpu time      0.1189: real time      0.0998
    SETDIJ:  cpu time      0.0029: real time      0.0043
     EDDAV:  cpu time      8.8158: real time      8.6428
       DOS:  cpu time      0.0001: real time      0.0001
    CHARGE:  cpu time      0.2562: real time      0.2024
    MIXING:  cpu time      0.0079: real time      0.0069
    --------------------------------------------
      LOOP:  cpu time      9.2019: real time      8.9563

 eigenvalue-minimisations  :  1330
 total energy-change (2. order) :-0.1260288E-05  (-0.2939316E-06)
 number of electron      35.9999983 magnetization 
 augmentation part       14.4130754 magnetization 

 Broyden mixing:
  rms(total) = 0.40791E-03    rms(broyden)= 0.40791E-03
  rms(prec ) = 0.44288E-03
  weight for this iteration     100.00

 eigenvalues of (default mixing * dielectric matrix)
  average eigenvalue GAMMA=   1.6947
  3.2718  2.4219  2.4219  1.4030  1.1618  0.9454  0.9454  0.9863

 Free energy of the ion-electron system (eV)
  ---------------------------------------------------
  alpha Z        PSCENC =       153.06604141
  Ewald energy   TEWEN  =     -2559.42598856
  -Hartree energ DENC   =     -1338.83172895
  -exchange      EXHF   =         0.00000000
  -V(xc)+E(xc)   XCENC  =       139.61666261
  PAW double counting   =      4515.58721625    -4866.81796653
  entropy T*S    EENTRO =        -0.00000000
  eigenvalues    EBANDS =      -108.03052441
  atomic energy  EATOM  =      4051.30602026
  Solvation  Ediel_sol  =         0.00000000
  ---------------------------------------------------
  free energy    TOTEN  =       -13.53026792 eV

  energy without entropy =      -13.53026792  energy(sigma->0) =      -13.53026792


--------------------------------------------------------------------------------------------------------




--------------------------------------- Iteration      1(  14)  ---------------------------------------


    POTLOK:  cpu time      0.0812: real time      0.0928
    SETDIJ:  cpu time      0.0042: real time      0.0047
     EDDAV:  cpu time      8.7090: real time      8.6134
       DOS:  cpu time      0.0001: real time      0.0001
    --------------------------------------------
      LOOP:  cpu time      8.7946: real time      8.7111

 eigenvalue-minimisations  :  1120
 total energy-change (2. order) :-0.1917047E-06  (-0.4202639E-07)
 number of electron      35.9999983 magnetization 
 augmentation part       14.4130754 magnetization 

 Free energy of the ion-electron system (eV)
  ---------------------------------------------------
  alpha Z        PSCENC =       153.06604141
  Ewald energy   TEWEN  =     -2559.42598856
  -Hartree energ DENC   =     -1338.83871368
  -exchange      EXHF   =         0.00000000
  -V(xc)+E(xc)   XCENC  =       139.61689132
  PAW double counting   =      4515.24724456    -4866.47820698
  entropy T*S    EENTRO =        -0.00000000
  eigenvalues    EBANDS =      -108.02355645
  atomic energy  EATOM  =      4051.30602026
  Solvation  Ediel_sol  =         0.00000000
  ---------------------------------------------------
  free energy    TOTEN  =       -13.53026811 eV

  energy without entropy =      -13.53026811  energy(sigma->0) =      -13.53026811


--------------------------------------------------------------------------------------------------------




 average (electrostatic) potential at core
  the test charge radii are     0.9521  0.9698
  (the norm of the test charge is              1.0000)
       1 -35.7963       2 -35.7963       3 -88.0895       4 -88.0895



 E-fermi :   2.9633     XC(G=0):  -9.9373     alpha+bet : -8.6056

 val. band max:        2.7669536842   @ k =   0.0000   0.0000   0.0000
 cond. band min:       5.2559860394   @ k =   0.0000   0.0000   0.0000
 fundamental gap:      2.4890323552
 Fermi energy:         2.9633346006

 k-point     1 :       0.0000    0.0000    0.0000
  band No.  band energies     occupation 
      1     -10.8838      2.00000
      2      -9.8254      2.00000
      3      -3.8651      2.00000
      4      -3.8494      2.00000
      5      -3.8494      2.00000
      6      -3.7571      2.00000
      7      -3.7571      2.00000
      8      -3.3395      2.00000
      9      -3.3395      2.00000
     10      -3.2473      2.00000
     11      -3.2473      2.00000
     12      -3.1315      2.00000
     13      -2.9481      2.00000
     14       1.7780      2.00000
     15       1.7780      2.00000
     16       2.6799      2.00000
     17       2.7670      2.00000
     18       2.7670      2.00000
     19       5.2560      0.00000
     20       5.9679      0.00000
     21       9.0212      0.00000
     22       9.0212      0.00000
     23       9.2951      0.00000
     24      10.4782      0.00000
     25      10.4782      0.00000
     26      12.3421      0.00000
     27      12.8099      0.00000
     28      12.8099      0.00000

 k-point     2 :       0.1667    0.0000    0.0000
  band No.  band energies     occupation 
      1     -10.6803      2.00000
      2      -9.7136      2.00000
      3      -3.8738      2.00000
      4      -3.8233      2.00000
      5      -3.8105      2.00000
      6      -3.7349      2.00000
      7      -3.6979      2.00000
      8      -3.3698      2.00000
      9      -3.3569      2.00000
     10      -3.3387      2.00000
     11      -3.2379      2.00000
     12      -3.0103      2.00000
     13      -2.6914      2.00000
     14       0.4705      2.00000
     15       1.3400      2.00000
     16       1.4161      2.00000
     17       2.4050      2.00000
     18       2.5171      2.00000
     19       6.3816      0.00000
     20       6.9150      0.00000
     21       8.5525      0.00000
     22       9.5149      0.00000
     23       9.5629      0.00000
     24      10.4241      0.00000
     25      11.0910      0.00000
     26      11.3484      0.00000
     27      12.0134      0.00000
     28      12.5107      0.00000

 k-point     3 :       0.3333    0.0000    0.0000
  band No.  band energies     occupation 
      1     -10.1872      2.00000
      2      -9.5129      2.00000
      3      -3.8827      2.00000
      4      -3.7673      2.00000
      5      -3.7509      2.00000
      6      -3.5982      2.00000
      7      -3.5707      2.00000
      8      -3.4444      2.00000
      9      -3.3522      2.00000
     10      -3.3019      2.00000
     11      -3.2181      2.00000
     12      -2.9152      2.00000
     13      -2.2446      2.00000
     14      -1.1116      2.00000
     15      -0.3785      2.00000
     16       0.6181      2.00000
     17       1.5876      2.00000
     18       2.0230      2.00000
     19       6.5968      0.00000
     20       7.1661      0.00000
     21       8.3375      0.00000
     22       9.6267      0.00000
     23       9.7555      0.00000
     24      11.3573      0.00000
     25      11.5695      0.00000
     26      12.7491      0.00000
     27      13.3593      0.00000
     28      13.9168      0.00000

 k-point     4 :       0.5000    0.0000    0.0000
  band No.  band energies     occupation 
      1      -9.8414      2.00000
      2      -9.4725      2.00000
      3      -3.8632      2.00000
      4      -3.7328      2.00000
      5      -3.6360      2.00000
      6      -3.5784      2.00000
      7      -3.5057      2.00000
      8      -3.4364      2.00000
      9      -3.2609      2.00000
     10      -3.2041      2.00000
     11      -3.1753      2.00000
     12      -3.1029      2.00000
     13      -2.3109      2.00000
     14      -1.6050      2.00000
     15      -0.8063      2.00000
     16       0.2955      2.00000
     17       0.8953      2.00000
     18       1.7876      2.00000
     19       6.3621      0.00000
     20       7.1719      0.00000
     21       7.8292      0.00000
     22       9.6337      0.00000
     23      10.4280      0.00000
     24      11.1885      0.00000
     25      12.0025      0.00000
     26      14.5364      0.00000
     27      15.1731      0.00000
     28      15.6926      0.00000

 k-point     5 :       0.1667    0.1667    0.0000
  band No.  band energies     occupation 
      1     -10.3278      2.00000
      2      -9.5565      2.00000
      3      -3.8412      2.00000
      4      -3.8024      2.00000
      5      -3.7608      2.00000
      6      -3.6800      2.00000
      7      -3.5927      2.00000
      8      -3.3924      2.00000
      9      -3.3741      2.00000
     10      -3.3392      2.00000
     11      -3.2232      2.00000
     12      -2.9518      2.00000
     13      -2.2900      2.00000
     14      -0.5459      2.00000
     15      -0.0841      2.00000
     16       0.5890      2.00000
     17       1.8240      2.00000
     18       1.8928      2.00000
     19       7.4329      0.00000
     20       7.9006      0.00000
     21       8.3959      0.00000
     22       8.5693      0.00000
     23      10.0053      0.00000
     24      10.3972      0.00000
     25      11.3522      0.00000
     26      11.8900      0.00000
     27      13.1230      0.00000
     28      13.3651      0.00000

 k-point     6 :       0.3333    0.1667    0.0000
  band No.  band energies     occupation 
      1      -9.8588      2.00000
      2      -9.4637      2.00000
      3      -3.8331      2.00000
      4      -3.7224      2.00000
      5      -3.6269      2.00000
      6      -3.5458      2.00000
      7      -3.4809      2.00000
      8      -3.4486      2.00000
      9      -3.3448      2.00000
     10      -3.3065      2.00000
     11      -3.1827      2.00000
     12      -2.8729      2.00000
     13      -2.2746      2.00000
     14      -1.3163      2.00000
     15      -0.7623      2.00000
     16      -0.3077      2.00000
     17       0.9998      2.00000
     18       1.1777      2.00000
     19       7.4070      0.00000
     20       7.7609      0.00000
     21       8.0994      0.00000
     22       9.8245      0.00000
     23      10.0739      0.00000
     24      11.4140      0.00000
     25      11.9837      0.00000
     26      12.6241      0.00000
     27      14.0086      0.00000
     28      14.8209      0.00000

 k-point     7 :       0.3333    0.3333    0.0000
  band No.  band energies     occupation 
      1      -9.5648      2.00000
      2      -9.5648      2.00000
      3      -3.8409      2.00000
      4      -3.6118      2.00000
      5      -3.6118      2.00000
      6      -3.4687      2.00000
      7      -3.3929      2.00000
      8      -3.3929      2.00000
      9      -3.3259      2.00000
     10      -3.3123      2.00000
     11      -3.0562      2.00000
     12      -3.0562      2.00000
     13      -1.7924      2.00000
     14      -1.7924      2.00000
     15      -1.4599      2.00000
     16       0.2143      2.00000
     17       0.2143      2.00000
     18       0.4692      2.00000
     19       6.8401      0.00000
     20       8.9477      0.00000
     21       8.9477      0.00000
     22      10.7202      0.00000
     23      10.8701      0.00000
     24      10.8701      0.00000
     25      12.5516      0.00000
     26      12.5516      0.00000
     27      13.0887      0.00000
     28      14.3602      0.00000

 k-point     8 :       0.0000    0.0000    0.2500
  band No.  band energies     occupation 
      1     -10.7517      2.00000
      2     -10.0087      2.00000
      3      -3.8785      2.00000
      4      -3.8404      2.00000
      5      -3.8404      2.00000
      6      -3.7754      2.00000
      7      -3.7754      2.00000
      8      -3.6607      2.00000
      9      -3.3225      2.00000
     10      -3.3225      2.00000
     11      -3.2571      2.00000
     12      -3.2571      2.00000
     13      -1.8688      2.00000
     14       1.5453      2.00000
     15       1.9113      2.00000
     16       1.9113      2.00000
     17       2.6089      2.00000
     18       2.6089      2.00000
     19       6.1302      0.00000
     20       6.1512      0.00000
     21       9.0147      0.00000
     22       9.1178      0.00000
     23       9.1178      0.00000
     24      10.1052      0.00000
     25      10.1052      0.00000
     26      11.4279      0.00000
     27      13.4211      0.00000
     28      13.4211      0.00000

 k-point     9 :       0.1667    0.0000    0.2500
  band No.  band energies     occupation 
      1     -10.5567      2.00000
      2      -9.8766      2.00000
      3      -3.8940      2.00000
      4      -3.8194      2.00000
      5      -3.7979      2.00000
      6      -3.7627      2.00000
      7      -3.7185      2.00000
      8      -3.6221      2.00000
      9      -3.3388      2.00000
     10      -3.3220      2.00000
     11      -3.2507      2.00000
     12      -3.2221      2.00000
     13      -1.7376      2.00000
     14       0.6377      2.00000
     15       0.8996      2.00000
     16       1.4939      2.00000
     17       2.0528      2.00000
     18       2.3211      2.00000
     19       6.7616      0.00000
     20       7.1537      0.00000
     21       8.6055      0.00000
     22       9.1017      0.00000
     23       9.7045      0.00000
     24       9.7885      0.00000
     25      10.9448      0.00000
     26      11.3476      0.00000
     27      12.5409      0.00000
     28      13.0760      0.00000

 k-point    10 :       0.3333    0.0000    0.2500
  band No.  band energies     occupation 
      1     -10.0931      2.00000
      2      -9.6156      2.00000
      3      -3.9053      2.00000
      4      -3.8067      2.00000
      5      -3.7268      2.00000
      6      -3.6145      2.00000
      7      -3.5991      2.00000
      8      -3.5524      2.00000
      9      -3.3262      2.00000
     10      -3.2921      2.00000
     11      -3.2339      2.00000
     12      -3.1070      2.00000
     13      -1.9347      2.00000
     14      -0.9311      2.00000
     15      -0.3183      2.00000
     16       0.8002      2.00000
     17       1.6184      2.00000
     18       1.7835      2.00000
     19       6.3518      0.00000
     20       7.0428      0.00000
     21       8.4682      0.00000
     22       9.1317      0.00000
     23      10.2332      0.00000
     24      11.0316      0.00000
     25      11.8295      0.00000
     26      12.7326      0.00000
     27      12.9361      0.00000
     28      14.1303      0.00000

 k-point    11 :       0.5000    0.0000    0.2500
  band No.  band energies     occupation 
      1      -9.7822      2.00000
      2      -9.5199      2.00000
      3      -3.8894      2.00000
      4      -3.7657      2.00000
      5      -3.7016      2.00000
      6      -3.5623      2.00000
      7      -3.5394      2.00000
      8      -3.4440      2.00000
      9      -3.2571      2.00000
     10      -3.2199      2.00000
     11      -3.0932      2.00000
     12      -3.0898      2.00000
     13      -2.5092      2.00000
     14      -1.9366      2.00000
     15      -0.1018      2.00000
     16       0.4903      2.00000
     17       1.2048      2.00000
     18       1.5333      2.00000
     19       6.2564      0.00000
     20       6.5174      0.00000
     21       8.5040      0.00000
     22       8.7958      0.00000
     23      10.1980      0.00000
     24      10.9366      0.00000
     25      12.9537      0.00000
     26      13.6436      0.00000
     27      15.1149      0.00000
     28      15.9973      0.00000

 k-point    12 :       0.1667    0.1667    0.2500
  band No.  band energies     occupation 
      1     -10.2235      2.00000
      2      -9.6785      2.00000
      3      -3.8719      2.00000
      4      -3.8045      2.00000
      5      -3.7493      2.00000
      6      -3.6991      2.00000
      7      -3.6200      2.00000
      8      -3.5747      2.00000
      9      -3.3522      2.00000
     10      -3.3044      2.00000
     11      -3.2365      2.00000
     12      -3.1444      2.00000
     13      -1.7053      2.00000
     14      -0.3452      2.00000
     15      -0.1384      2.00000
     16       0.6148      2.00000
     17       1.5717      2.00000
     18       1.8274      2.00000
     19       7.1360      0.00000
     20       7.9076      0.00000
     21       8.7077      0.00000
     22       8.7751      0.00000
     23       9.6906      0.00000
     24      10.1647      0.00000
     25      11.1951      0.00000
     26      11.9454      0.00000
     27      13.1653      0.00000
     28      13.5901      0.00000

 k-point    13 :       0.3333    0.1667    0.2500
  band No.  band energies     occupation 
      1      -9.7966      2.00000
      2      -9.5158      2.00000
      3      -3.8332      2.00000
      4      -3.7460      2.00000
      5      -3.6782      2.00000
      6      -3.5620      2.00000
      7      -3.5286      2.00000
      8      -3.5060      2.00000
      9      -3.3140      2.00000
     10      -3.2850      2.00000
     11      -3.1713      2.00000
     12      -2.9395      2.00000
     13      -2.3176      2.00000
     14      -1.5919      2.00000
     15      -0.3981      2.00000
     16       0.1530      2.00000
     17       0.8499      2.00000
     18       1.3372      2.00000
     19       6.9955      0.00000
     20       7.8344      0.00000
     21       8.4116      0.00000
     22       8.9938      0.00000
     23       9.7758      0.00000
     24      11.2857      0.00000
     25      12.0492      0.00000
     26      12.7110      0.00000
     27      13.6421      0.00000
     28      15.0642      0.00000

 k-point    14 :       0.3333    0.3333    0.2500
  band No.  band energies     occupation 
      1      -9.5549      2.00000
      2      -9.5549      2.00000
      3      -3.7980      2.00000
      4      -3.6707      2.00000
      5      -3.6707      2.00000
      6      -3.5303      2.00000
      7      -3.4212      2.00000
      8      -3.4212      2.00000
      9      -3.3355      2.00000
     10      -3.3307      2.00000
     11      -2.9840      2.00000
     12      -2.9840      2.00000
     13      -2.0651      2.00000
     14      -2.0651      2.00000
     15      -1.2028      2.00000
     16       0.1253      2.00000
     17       0.7553      2.00000
     18       0.7553      2.00000
     19       7.5084      0.00000
     20       8.1291      0.00000
     21       8.1291      0.00000
     22      10.4202      0.00000
     23      10.4202      0.00000
     24      10.4438      0.00000
     25      12.8537      0.00000
     26      13.1593      0.00000
     27      13.3598      0.00000
     28      13.3598      0.00000

 k-point    15 :       0.0000    0.0000    0.5000
  band No.  band energies     occupation 
      1     -10.4051      2.00000
      2     -10.4051      2.00000
      3      -3.8633      2.00000
      4      -3.8633      2.00000
      5      -3.8125      2.00000
      6      -3.8125      2.00000
      7      -3.8125      2.00000
      8      -3.8125      2.00000
      9      -3.2862      2.00000
     10      -3.2862      2.00000
     11      -3.2862      2.00000
     12      -3.2862      2.00000
     13      -0.2479      2.00000
     14      -0.2479      2.00000
     15       2.2478      2.00000
     16       2.2478      2.00000
     17       2.2478      2.00000
     18       2.2478      2.00000
     19       6.4959      0.00000
     20       6.4959      0.00000
     21       9.4931      0.00000
     22       9.4931      0.00000
     23       9.4931      0.00000
     24       9.4931      0.00000
     25       9.7516      0.00000
     26       9.7516      0.00000
     27      14.9352      0.00000
     28      14.9352      0.00000

 k-point    16 :       0.1667    0.0000    0.5000
  band No.  band energies     occupation 
      1     -10.2360      2.00000
      2     -10.2360      2.00000
      3      -3.8894      2.00000
      4      -3.8894      2.00000
      5      -3.7622      2.00000
      6      -3.7622      2.00000
      7      -3.7602      2.00000
      8      -3.7602      2.00000
      9      -3.2844      2.00000
     10      -3.2844      2.00000
     11      -3.2835      2.00000
     12      -3.2835      2.00000
     13      -0.3567      2.00000
     14      -0.3567      2.00000
     15       1.2701      2.00000
     16       1.2701      2.00000
     17       1.8871      2.00000
     18       1.8871      2.00000
     19       7.3469      0.00000
     20       7.3469      0.00000
     21       8.5676      0.00000
     22       8.5676      0.00000
     23      10.2102      0.00000
     24      10.2102      0.00000
     25      10.2354      0.00000
     26      10.2354      0.00000
     27      14.1827      0.00000
     28      14.1827      0.00000

 k-point    17 :       0.3333    0.0000    0.5000
  band No.  band energies     occupation 
      1      -9.8588      2.00000
      2      -9.8588      2.00000
      3      -3.9024      2.00000
      4      -3.9024      2.00000
      5      -3.6652      2.00000
      6      -3.6652      2.00000
      7      -3.6282      2.00000
      8      -3.6282      2.00000
      9      -3.2658      2.00000
     10      -3.2658      2.00000
     11      -3.2407      2.00000
     12      -3.2407      2.00000
     13      -1.4568      2.00000
     14      -1.4568      2.00000
     15       0.8612      2.00000
     16       0.8612      2.00000
     17       1.2646      2.00000
     18       1.2646      2.00000
     19       6.6866      0.00000
     20       6.6866      0.00000
     21       8.4025      0.00000
     22       8.4025      0.00000
     23      11.4097      0.00000
     24      11.4097      0.00000
     25      11.4927      0.00000
     26      11.4927      0.00000
     27      14.0513      0.00000
     28      14.0513      0.00000

 k-point    18 :       0.5000    0.0000    0.5000
  band No.  band energies     occupation 
      1      -9.6453      2.00000
      2      -9.6453      2.00000
      3      -3.8935      2.00000
      4      -3.8935      2.00000
      5      -3.6223      2.00000
      6      -3.6223      2.00000
      7      -3.5096      2.00000
      8      -3.5096      2.00000
      9      -3.2439      2.00000
     10      -3.2439      2.00000
     11      -3.0591      2.00000
     12      -3.0591      2.00000
     13      -2.3982      2.00000
     14      -2.3982      2.00000
     15       0.9800      2.00000
     16       0.9800      2.00000
     17       0.9837      2.00000
     18       0.9837      2.00000
     19       6.3183      0.00000
     20       6.3183      0.00000
     21       7.9423      0.00000
     22       7.9423      0.00000
     23      11.6699      0.00000
     24      11.6699      0.00000
     25      12.2549      0.00000
     26      12.2549      0.00000
     27      15.3663      0.00000
     28      15.3663      0.00000

 k-point    19 :       0.1667    0.1667    0.5000
  band No.  band energies     occupation 
      1      -9.9599      2.00000
      2      -9.9599      2.00000
      3      -3.8766      2.00000
      4      -3.8766      2.00000
      5      -3.7178      2.00000
      6      -3.7178      2.00000
      7      -3.6700      2.00000
      8      -3.6700      2.00000
      9      -3.2849      2.00000
     10      -3.2849      2.00000
     11      -3.2469      2.00000
     12      -3.2469      2.00000
     13      -0.9826      2.00000
     14      -0.9826      2.00000
     15       0.8798      2.00000
     16       0.8798      2.00000
     17       1.1135      2.00000
     18       1.1135      2.00000
     19       7.5688      0.00000
     20       7.5688      0.00000
     21       8.7319      0.00000
     22       8.7319      0.00000
     23       9.8466      0.00000
     24       9.8466      0.00000
     25      11.2245      0.00000
     26      11.2245      0.00000
     27      14.1198      0.00000
     28      14.1198      0.00000

 k-point    20 :       0.3333    0.1667    0.5000
  band No.  band energies     occupation 
      1      -9.6511      2.00000
      2      -9.6511      2.00000
      3      -3.8295      2.00000
      4      -3.8295      2.00000
      5      -3.6399      2.00000
      6      -3.6399      2.00000
      7      -3.5488      2.00000
      8      -3.5488      2.00000
      9      -3.2823      2.00000
     10      -3.2823      2.00000
     11      -3.0885      2.00000
     12      -3.0885      2.00000
     13      -2.0601      2.00000
     14      -2.0601      2.00000
     15       0.1996      2.00000
     16       0.1996      2.00000
     17       1.1533      2.00000
     18       1.1533      2.00000
     19       7.0626      0.00000
     20       7.0626      0.00000
     21       8.7152      0.00000
     22       8.7152      0.00000
     23      10.3328      0.00000
     24      10.3328      0.00000
     25      12.0299      0.00000
     26      12.0299      0.00000
     27      14.7116      0.00000
     28      14.7116      0.00000

 k-point    21 :       0.3333    0.3333    0.5000
  band No.  band energies     occupation 
      1      -9.5449      2.00000
      2      -9.5449      2.00000
      3      -3.7338      2.00000
      4      -3.7338      2.00000
      5      -3.6782      2.00000
      6      -3.6782      2.00000
      7      -3.4375      2.00000
      8      -3.4375      2.00000
      9      -3.3399      2.00000
     10      -3.3399      2.00000
     11      -2.9084      2.00000
     12      -2.9084      2.00000
     13      -2.2791      2.00000
     14      -2.2791      2.00000
     15      -0.5786      2.00000
     16      -0.5786      2.00000
     17       1.2745      2.00000
     18       1.2745      2.00000
     19       7.3362      0.00000
     20       7.3362      0.00000
     21       9.0822      0.00000
     22       9.0822      0.00000
     23      10.3387      0.00000
     24      10.3387      0.00000
     25      12.5407      0.00000
     26      12.5407      0.00000
     27      13.3554      0.00000
     28      13.3554      0.00000


--------------------------------------------------------------------------------------------------------


 soft charge-density along one line, spin component           1
         0         1         2         3         4         5         6         7         8         9
 total charge-density along one line

 pseudopotential strength for first ion, spin component:           1
 -9.398  -0.000  -0.000   0.001  -0.000  -9.785  -0.000  -0.000
 -0.000  -9.398  -0.000   0.000   0.001  -0.000  -9.784  -0.000
 -0.000  -0.000  -9.398  -0.000   0.000  -0.000  -0.000  -9.785
  0.001   0.000  -0.000  -9.398  -0.000   0.001   0.000  -0.000
 -0.000   0.001   0.000  -0.000  -9.398  -0.000   0.001   0.000
 -9.785  -0.000  -0.000   0.001  -0.000 -10.095  -0.000  -0.000
 -0.000  -9.784  -0.000   0.000   0.001  -0.000 -10.095  -0.000
 -0.000  -0.000  -9.785  -0.000   0.000  -0.000  -0.000 -10.095
[...]
     23       9.6957      0.00000
     24      10.1638      0.00000
     25      11.1977      0.00000
     26      11.9411      0.00000
     27      13.1640      0.00000
     28      13.5929      0.00000

 k-point    13 :       0.3333    0.1667    0.2500
  band No.  band energies     occupation 
      1      -9.7968      2.00000
      2      -9.5158      2.00000
      3      -3.8337      2.00000
      4      -3.7471      2.00000
      5      -3.6788      2.00000
      6      -3.5621      2.00000
      7      -3.5288      2.00000
      8      -3.5054      2.00000
      9      -3.3142      2.00000
     10      -3.2848      2.00000
     11      -3.1709      2.00000
     12      -2.9395      2.00000
     13      -2.3171      2.00000
     14      -1.5896      2.00000
     15      -0.3980      2.00000
     16       0.1514      2.00000
     17       0.8540      2.00000
     18       1.3342      2.00000
     19       6.9937      0.00000
     20       7.8337      0.00000
     21       8.4098      0.00000
     22       8.9941      0.00000
     23       9.7776      0.00000
     24      11.2869      0.00000
     25      12.0482      0.00000
     26      12.7090      0.00000
     27      13.6403      0.00000
     28      15.0626      0.00000

 k-point    14 :       0.3333    0.3333    0.2500
  band No.  band energies     occupation 
      1      -9.5551      2.00000
      2      -9.5551      2.00000
      3      -3.7990      2.00000
      4      -3.6725      2.00000
      5      -3.6725      2.00000
      6      -3.5297      2.00000
      7      -3.4215      2.00000
      8      -3.4215      2.00000
      9      -3.3352      2.00000
     10      -3.3301      2.00000
     11      -2.9836      2.00000
     12      -2.9836      2.00000
     13      -2.0631      2.00000
     14      -2.0631      2.00000
     15      -1.2012      2.00000
     16       0.1308      2.00000
     17       0.7520      2.00000
     18       0.7520      2.00000
     19       7.5017      0.00000
     20       8.1293      0.00000
     21       8.1293      0.00000
     22      10.4225      0.00000
     23      10.4225      0.00000
     24      10.4416      0.00000
     25      12.8539      0.00000
     26      13.1572      0.00000
     27      13.3612      0.00000
     28      13.3612      0.00000

 k-point    15 :       0.0000    0.0000    0.5000
  band No.  band energies     occupation 
      1     -10.4046      2.00000
      2     -10.4046      2.00000
      3      -3.8664      2.00000
      4      -3.8664      2.00000
      5      -3.8107      2.00000
      6      -3.8107      2.00000
      7      -3.8107      2.00000
      8      -3.8107      2.00000
      9      -3.2864      2.00000
     10      -3.2864      2.00000
     11      -3.2864      2.00000
     12      -3.2864      2.00000
     13      -0.2514      2.00000
     14      -0.2514      2.00000
     15       2.2474      2.00000
     16       2.2474      2.00000
     17       2.2474      2.00000
     18       2.2474      2.00000
     19       6.4983      0.00000
     20       6.4983      0.00000
     21       9.4950      0.00000
     22       9.4950      0.00000
     23       9.4950      0.00000
     24       9.4950      0.00000
     25       9.7534      0.00000
     26       9.7534      0.00000
     27      14.9339      0.00000
     28      14.9339      0.00000

 k-point    16 :       0.1667    0.0000    0.5000
  band No.  band energies     occupation 
      1     -10.2356      2.00000
      2     -10.2356      2.00000
      3      -3.8902      2.00000
      4      -3.8902      2.00000
      5      -3.7606      2.00000
      6      -3.7606      2.00000
      7      -3.7605      2.00000
      8      -3.7605      2.00000
      9      -3.2846      2.00000
     10      -3.2846      2.00000
     11      -3.2838      2.00000
     12      -3.2838      2.00000
     13      -0.3598      2.00000
     14      -0.3598      2.00000
     15       1.2702      2.00000
     16       1.2702      2.00000
     17       1.8875      2.00000
     18       1.8875      2.00000
     19       7.3479      0.00000
     20       7.3479      0.00000
     21       8.5687      0.00000
     22       8.5687      0.00000
     23      10.2136      0.00000
     24      10.2136      0.00000
     25      10.2355      0.00000
     26      10.2355      0.00000
     27      14.1793      0.00000
     28      14.1793      0.00000

 k-point    17 :       0.3333    0.0000    0.5000
  band No.  band energies     occupation 
      1      -9.8587      2.00000
      2      -9.8587      2.00000
      3      -3.9027      2.00000
      4      -3.9027      2.00000
      5      -3.6644      2.00000
      6      -3.6644      2.00000
      7      -3.6288      2.00000
      8      -3.6288      2.00000
      9      -3.2657      2.00000
     10      -3.2657      2.00000
     11      -3.2411      2.00000
     12      -3.2411      2.00000
     13      -1.4566      2.00000
     14      -1.4566      2.00000
     15       0.8589      2.00000
     16       0.8589      2.00000
     17       1.2664      2.00000
     18       1.2664      2.00000
     19       6.6855      0.00000
     20       6.6855      0.00000
     21       8.4060      0.00000
     22       8.4060      0.00000
     23      11.4050      0.00000
     24      11.4050      0.00000
     25      11.4934      0.00000
     26      11.4934      0.00000
     27      14.0499      0.00000
     28      14.0499      0.00000

 k-point    18 :       0.5000    0.0000    0.5000
  band No.  band energies     occupation 
      1      -9.6454      2.00000
      2      -9.6454      2.00000
      3      -3.8940      2.00000
      4      -3.8940      2.00000
      5      -3.6219      2.00000
      6      -3.6219      2.00000
      7      -3.5110      2.00000
      8      -3.5110      2.00000
      9      -3.2438      2.00000
     10      -3.2438      2.00000
     11      -3.0590      2.00000
     12      -3.0590      2.00000
     13      -2.3962      2.00000
     14      -2.3962      2.00000
     15       0.9769      2.00000
     16       0.9769      2.00000
     17       0.9862      2.00000
     18       0.9862      2.00000
     19       6.3163      0.00000
     20       6.3163      0.00000
     21       7.9467      0.00000
     22       7.9467      0.00000
     23      11.6635      0.00000
     24      11.6635      0.00000
     25      12.2536      0.00000
     26      12.2536      0.00000
     27      15.3666      0.00000
     28      15.3666      0.00000

 k-point    19 :       0.1667    0.1667    0.5000
  band No.  band energies     occupation 
      1      -9.9597      2.00000
      2      -9.9597      2.00000
      3      -3.8771      2.00000
      4      -3.8771      2.00000
      5      -3.7171      2.00000
      6      -3.7171      2.00000
      7      -3.6699      2.00000
      8      -3.6699      2.00000
      9      -3.2852      2.00000
     10      -3.2852      2.00000
     11      -3.2471      2.00000
     12      -3.2471      2.00000
     13      -0.9836      2.00000
     14      -0.9836      2.00000
     15       0.8795      2.00000
     16       0.8795      2.00000
     17       1.1140      2.00000
     18       1.1140      2.00000
     19       7.5672      0.00000
     20       7.5672      0.00000
     21       8.7338      0.00000
     22       8.7338      0.00000
     23       9.8504      0.00000
     24       9.8504      0.00000
     25      11.2211      0.00000
     26      11.2211      0.00000
     27      14.1194      0.00000
     28      14.1194      0.00000

 k-point    20 :       0.3333    0.1667    0.5000
  band No.  band energies     occupation 
      1      -9.6513      2.00000
      2      -9.6513      2.00000
      3      -3.8305      2.00000
      4      -3.8305      2.00000
      5      -3.6401      2.00000
      6      -3.6401      2.00000
      7      -3.5486      2.00000
      8      -3.5486      2.00000
      9      -3.2824      2.00000
     10      -3.2824      2.00000
     11      -3.0884      2.00000
     12      -3.0884      2.00000
     13      -2.0589      2.00000
     14      -2.0589      2.00000
     15       0.2019      2.00000
     16       0.2019      2.00000
     17       1.1508      2.00000
     18       1.1508      2.00000
     19       7.0611      0.00000
     20       7.0611      0.00000
     21       8.7181      0.00000
     22       8.7181      0.00000
     23      10.3294      0.00000
     24      10.3294      0.00000
     25      12.0304      0.00000
     26      12.0304      0.00000
     27      14.7092      0.00000
     28      14.7092      0.00000

 k-point    21 :       0.3333    0.3333    0.5000
  band No.  band energies     occupation 
      1      -9.5451      2.00000
      2      -9.5451      2.00000
      3      -3.7359      2.00000
      4      -3.7359      2.00000
      5      -3.6785      2.00000
      6      -3.6785      2.00000
      7      -3.4372      2.00000
      8      -3.4372      2.00000
      9      -3.3395      2.00000
     10      -3.3395      2.00000
     11      -2.9083      2.00000
     12      -2.9083      2.00000
     13      -2.2774      2.00000
     14      -2.2774      2.00000
     15      -0.5753      2.00000
     16      -0.5753      2.00000
     17       1.2715      2.00000
     18       1.2715      2.00000
     19       7.3363      0.00000
     20       7.3363      0.00000
     21       9.0775      0.00000
     22       9.0775      0.00000
     23      10.3407      0.00000
     24      10.3407      0.00000
     25      12.5402      0.00000
     26      12.5402      0.00000
     27      13.3582      0.00000
     28      13.3582      0.00000


--------------------------------------------------------------------------------------------------------


 soft charge-density along one line, spin component           1
         0         1         2         3         4         5         6         7         8         9
 total charge-density along one line

 pseudopotential strength for first ion, spin component:           1
 -9.398  -0.000   0.000   0.001  -0.000  -9.785  -0.000   0.000
 -0.000  -9.398  -0.000  -0.000   0.001  -0.000  -9.784  -0.000
  0.000  -0.000  -9.398   0.000   0.000   0.000  -0.000  -9.785
  0.001  -0.000   0.000  -9.398  -0.000   0.001  -0.000   0.000
 -0.000   0.001   0.000  -0.000  -9.398  -0.000   0.001   0.000
 -9.785  -0.000   0.000   0.001  -0.000 -10.095  -0.000   0.000
 -0.000  -9.784  -0.000  -0.000   0.001  -0.000 -10.095  -0.000
  0.000  -0.000  -9.785   0.000   0.000   0.000  -0.000 -10.095
  0.001  -0.000   0.000  -9.784  -0.000   0.001  -0.000   0.000
 -0.000   0.001   0.000  -0.000  -9.785  -0.000   0.001   0.000
 -0.000   0.000  -0.000  -0.000  -0.000  -0.000   0.000  -0.000
 -0.000   0.000  -0.000  -0.000  -0.000  -0.000   0.000  -0.000
 -0.000   0.002  -0.000   0.000  -0.003  -0.000   0.002  -0.000
  0.000   0.000  -0.003  -0.000   0.000   0.000   0.000  -0.002
 -0.003   0.000   0.000   0.002  -0.000  -0.002   0.000   0.000
 -0.000   0.002  -0.000   0.000  -0.003  -0.000   0.002  -0.000
  0.000   0.000  -0.003  -0.000   0.000   0.000   0.000  -0.002
 -0.003   0.000   0.000   0.002  -0.000  -0.002   0.000   0.000
 total augmentation occupancy for first ion, spin component:           1
  3.798  -0.000  -0.000  -0.796  -0.000  -1.812   0.000   0.000   0.796   0.000  -0.000   0.000  -0.000   0.000  -0.638   0.000
 -0.000   3.244   0.000   0.000  -0.796   0.000  -1.259  -0.000  -0.000   0.796  -0.000   0.000   0.456   0.000   0.000  -0.069
 -0.000   0.000   4.359   0.000  -0.000   0.000  -0.000  -2.371  -0.000   0.000  -0.003   0.002   0.000  -0.782   0.000  -0.000
 -0.796   0.000   0.000   3.244   0.000   0.796  -0.000  -0.000  -1.259  -0.000   0.000  -0.000   0.000   0.000   0.456  -0.000
 -0.000  -0.796  -0.000   0.000   3.798   0.000   0.796   0.000  -0.000  -1.812   0.000  -0.000  -0.638   0.000   0.000   0.097
 -1.812   0.000   0.000   0.796   0.000   1.818  -0.000  -0.000  -0.796  -0.000   0.000  -0.000   0.000  -0.000   0.622  -0.000
  0.000  -1.259  -0.000  -0.000   0.796  -0.000   1.267   0.000   0.000  -0.796   0.000   0.000  -0.444  -0.000  -0.000   0.077
  0.000  -0.000  -2.371  -0.000   0.000  -0.000   0.000   2.374   0.000  -0.000   0.003  -0.002  -0.000   0.762  -0.000   0.000
  0.796  -0.000  -0.000  -1.259  -0.000  -0.796   0.000   0.000   1.267   0.000   0.000   0.000  -0.000  -0.000  -0.444   0.000
  0.000   0.796   0.000  -0.000  -1.812  -0.000  -0.796  -0.000   0.000   1.818   0.000  -0.000   0.622  -0.000  -0.000  -0.108
  0.000  -0.000  -0.003   0.000  -0.000   0.000   0.000   0.003  -0.000   0.000   2.696  -0.658  -0.000  -0.001   0.000   0.000
  0.000   0.000   0.002  -0.000  -0.000  -0.000   0.000  -0.002   0.000  -0.000  -0.658   0.189   0.000   0.001   0.000   0.000
 -0.000   0.456   0.000   0.000  -0.638   0.000  -0.444  -0.000  -0.000   0.622  -0.000   0.000   0.409   0.000   0.000  -0.072
  0.000   0.000  -0.782   0.000   0.000  -0.000  -0.000   0.762  -0.000  -0.000  -0.001   0.001   0.000   0.410  -0.000   0.000
 -0.638   0.000   0.000   0.456   0.000   0.622  -0.000  -0.000  -0.444  -0.000   0.000   0.000   0.000  -0.000   0.409  -0.000
  0.000  -0.069  -0.000  -0.000   0.097  -0.000   0.077   0.000   0.000  -0.108   0.000   0.000  -0.072  -0.000  -0.000   0.015
 -0.000   0.000   0.119   0.000  -0.000   0.000   0.000  -0.132   0.000   0.000   0.001  -0.000   0.000  -0.072   0.000  -0.000
  0.097  -0.000  -0.000  -0.069  -0.000  -0.108   0.000   0.000   0.077   0.000   0.000  -0.000  -0.000  -0.000  -0.072   0.000


------------------------ aborting loop because EDIFF is reached ----------------------------------------


    CHARGE:  cpu time      0.2150: real time      0.1967
    FORLOC:  cpu time      0.0022: real time      0.0020
    FORNL :  cpu time      0.0471: real time      0.0477
    STRESS:  cpu time      0.4338: real time      0.4448
    FORCOR:  cpu time      0.0993: real time      0.0887
    FORHAR:  cpu time      0.0265: real time      0.0227
    MIXING:  cpu time      0.0063: real time      0.0055
    OFIELD:  cpu time      0.0000: real time      0.0000

  FORCE on cell =-STRESS in cart. coord.  units (eV):
  Direction    XX          YY          ZZ          XY          YZ          ZX
  --------------------------------------------------------------------------------------
  Alpha Z   153.06604   153.06604   153.06604
  Ewald    -864.15261  -864.15261  -831.14469    -0.00000    -0.00000    -0.00000
  Hartree   438.82724   438.82724   461.16049     0.00000    -0.00000    -0.00000
  E(xc)    -187.64317  -187.64316  -187.59608     0.00000     0.00000     0.00000
  Local      28.54020    28.54066   -26.39720     0.00000     0.00000     0.00000
  n-local    79.30258    84.03331    81.61576     2.64897     0.17283    -0.58037
  augment    47.10276    47.10243    47.15255    -0.00000    -0.00000    -0.00000
  Kinetic   302.55377   309.65292   305.80010     5.38937     0.38942    -0.84169
  Fock        0.00000     0.00000     0.00000     0.00000     0.00000     0.00000
  -------------------------------------------------------------------------------------
  Total       3.51182     3.51182     3.65696     0.00000     0.00000     0.00000
  in kB      76.16164    76.16164    79.30928     0.00000     0.00000     0.00000
  external pressure =       77.21 kB  Pullay stress =        0.00 kB


 VOLUME and BASIS-vectors are now :
 -----------------------------------------------------------------------------
  energy-cutoff  :      520.00
  volume of cell :       73.88
      direct lattice vectors                 reciprocal lattice vectors
     1.866592659 -3.233033323  0.000000000     0.267867763 -0.154653525  0.000000000
     1.866592659  3.233033323  0.000000000     0.267867763  0.154653525 -0.000000000
     0.000000000  0.000000000  6.120922376    -0.000000000  0.000000000  0.163374070

  length of vectors
     3.733185318  3.733185318  6.120922376     0.309307050  0.309307050  0.163374070


 FORCES acting on ions
    electron-ion (+dipol)            ewald-force                    non-local-force                 convergence-correction
 -----------------------------------------------------------------------------------------------
   0.588E-09 -.396E-05 -.392E+01   0.843E-14 0.534E-11 0.387E+01   0.106E-17 0.756E-17 0.478E-01   0.160E-13 0.140E-09 0.365E-05
   0.587E-09 0.396E-05 -.392E+01   0.132E-13 -.534E-11 0.387E+01   -.624E-17 -.555E-17 0.478E-01   0.420E-14 -.140E-09 0.365E-05
   -.525E-06 0.671E-06 0.385E+01   -.139E-13 0.496E-11 -.387E+01   0.602E-17 0.856E-17 0.192E-01   -.188E-13 -.505E-10 0.146E-04
   -.525E-06 -.671E-06 0.385E+01   -.888E-14 -.496E-11 -.387E+01   0.241E-16 -.366E-16 0.192E-01   0.659E-14 0.505E-10 0.146E-04
 -----------------------------------------------------------------------------------------------
   -.105E-05 0.802E-12 -.133E+00   -.117E-14 0.381E-14 0.444E-15   0.250E-16 -.260E-16 0.134E+00   0.802E-14 -.537E-13 0.366E-04


 POSITION                                       TOTAL-FORCE (eV/Angst)
 -----------------------------------------------------------------------------------
      1.86659      1.07768      0.00296        -0.000000      0.000000     -0.000023
      1.86659     -1.07768      3.06343         0.000000     -0.000000     -0.000023
      1.86659      1.07768      2.29238         0.000000     -0.000000      0.000023
      1.86659     -1.07768      5.35284        -0.000000     -0.000000      0.000023
 -----------------------------------------------------------------------------------
    total drift:                               -0.000001      0.000000      0.000986


--------------------------------------------------------------------------------------------------------



  FREE ENERGIE OF THE ION-ELECTRON SYSTEM (eV)
  ---------------------------------------------------
  free  energy   TOTEN  =       -13.53032351 eV

  energy  without entropy=      -13.53032351  energy(sigma->0) =      -13.53032351

 d Force = 0.4738641E-05[-0.370E-07, 0.951E-05]  d Energy = 0.4826660E-05-0.880E-07
 d Force = 0.6321960E-02[ 0.624E-02, 0.640E-02]  d Ewald  = 0.6322000E-02-0.403E-07


--------------------------------------------------------------------------------------------------------


    POTLOK:  cpu time      0.1051: real time      0.0988


--------------------------------------------------------------------------------------------------------


 Quasi-Newton relaxation of ions (Broydens 2nd method)
  g(Force)  = 0.101E-09   g(Stress)= 0.000E+00

 retain information from N=  1 steps
 eigenvalues of (default step * inverse Hessian matrix)
  average eigenvalue of G=   1.4106
 eigenvalue spectrum of G is  1.4106


--------------------------------------------------------------------------------------------------------


  
 reached required accuracy - stopping structural energy minimisation
 writing wavefunctions
     LOOP+:  cpu time     48.1676: real time     48.5402
    4ORBIT:  cpu time      0.0000: real time      0.0000

 total amount of memory used by VASP MPI-rank0    47408. kBytes
=======================================================================

   base      :      30000. kBytes
   nonl-proj :      12321. kBytes
   fftplans  :        894. kBytes
   grid      :       2739. kBytes
   one-center:         62. kBytes
   wavefun   :       1392. kBytes

  
  
 General timing and accounting informations for this job:
 ========================================================
  
                  Total CPU time used (sec):      247.281
                            User time (sec):      142.361
                          System time (sec):      104.920
                         Elapsed time (sec):      247.078
  
                   Maximum memory used (kb):    73842688.
                   Average memory used (kb):          N/A
  
                          Minor page faults:        10561
                          Major page faults:          111
                 Voluntary context switches:           20
