   9    9    1    1
  1.1370583e+02   4.9165578e-10   4.9165578e-10   5.4316253e-10   5.0000000e-16
            1.000000e-04
  CAR
 DOS and projected DOS file by LOBSTER. Energy is shifted such that the Fermi level lies at 0 eV. 
     21.08055905     -18.96950353   801       1.05552776       1.00000000
-20.02503   0.00000   0.00000
-19.97497   0.00000   0.00000
-19.92491   0.00000   0.00000
-19.87484   0.00000   0.00000
-19.82478   0.00000   0.00000
-19.77472   0.00000   0.00000
-19.72466   0.00000   0.00000
-19.67459   0.00000   0.00000
-19.62453   0.00000   0.00000
-19.57447   0.00000   0.00000
-19.52441   0.00000   0.00000
-19.47434   0.00000   0.00000
-19.42428   0.00000   0.00000
-19.37422   0.12599   0.00631
-19.32416   0.75986   0.04435
-19.27409   1.17349   0.10310
-19.22403   1.49113   0.17775
-19.17397   1.82200   0.26896
-19.12390   2.17480   0.37784
-19.07384   2.57194   0.50659
-19.02378   3.10849   0.66221
-18.97372   3.91006   0.85796
-18.92365   5.41222   1.12891
-18.87359   8.09214   1.53402
-18.82353   8.19556   1.94431
-18.77347   1.91872   2.04037
-18.72340   0.67376   2.07410
-18.67334   0.93932   2.12113
-18.62328   1.22386   2.18240
-18.57322   1.59100   2.26204
-18.52315   2.62622   2.39352
-18.47309   4.08730   2.59814
-18.42303  10.44591   3.12109
-18.37297   6.89634   3.46634
-18.32290   3.41827   3.63747
-18.27284   2.16280   3.74574
-18.22278   1.54725   3.82320
-18.17272   1.23474   3.88501
-18.12265   0.90938   3.93054
-18.07259   0.71815   3.96649
-18.02253   0.99028   4.01607
-17.97247   1.44599   4.08846
-17.92240   3.35665   4.25650
-17.87234   6.53976   4.58390
-17.82228  11.05952   5.13757
-17.77222   4.08596   5.34212
-17.72215   2.79659   5.48212
-17.67209   2.20158   5.59234
-17.62203   1.81850   5.68338
-17.57196   1.53483   5.76022
-17.52190   1.28197   5.82440
-17.47184   1.08587   5.87876
-17.42178   0.90411   5.92402
-17.37171   0.71947   5.96004
-17.32165   5.66364   6.24357
-17.27159  50.04164   8.74879
-17.22153  57.98017  11.65143
-17.17146   6.95894  11.99981
-17.12140   0.00000  11.99981
-17.07134   0.00000  11.99981
-17.02128   0.00000  11.99981
-16.97121   0.00000  11.99981
-16.92115   0.00000  11.99981
-16.87109   0.00000  11.99981
-16.82103   0.00000  11.99981
-16.77096   0.00000  11.99981
-16.72090   0.00000  11.99981
-16.67084   0.00000  11.99981
-16.62078   0.00000  11.99981
-16.57071   0.00000  11.99981
-16.52065   0.00000  11.99981
-16.47059   0.00000  11.99981
-16.42053   0.00000  11.99981
-16.37046   0.00000  11.99981
-16.32040   0.00000  11.99981
-16.27034   0.00000  11.99981
-16.22028   0.00000  11.99981
-16.17021   0.00000  11.99981
-16.12015   0.00000  11.99981
-16.07009   0.00000  11.99981
-16.02003   0.00000  11.99981
-15.96996   0.00000  11.99981
-15.91990   0.00000  11.99981
-15.86984   0.00000  11.99981
-15.81977   0.00000  11.99981
-15.76971   0.00000  11.99981
-15.71965   0.00000  11.99981
-15.66959   0.00000  11.99981
-15.61952   0.00000  11.99981
-15.56946   0.00000  11.99981
-15.51940   0.00000  11.99981
-15.46934   0.00000  11.99981
-15.41927   0.00000  11.99981
-15.36921   0.00000  11.99981
-15.31915   0.00000  11.99981
-15.26909   0.00000  11.99981
-15.21902   0.00000  11.99981
-15.16896   0.00000  11.99981
-15.11890   0.00000  11.99981
-15.06884   0.00000  11.99981
-15.01877   0.00000  11.99981
-14.96871   0.00000  11.99981
-14.91865   0.00000  11.99981
-14.86859   0.00000  11.99981
-14.81852   0.00000  11.99981
-14.76846   0.00000  11.99981
-14.71840   0.00000  11.99981
-14.66834   0.00000  11.99981
-14.61827   0.00000  11.99981
-14.56821   0.00000  11.99981
-14.51815   0.00000  11.99981
-14.46809   0.00000  11.99981
-14.41802   0.00000  11.99981
-14.36796   0.00000  11.99981
-14.31790   0.00000  11.99981
-14.26783   0.00000  11.99981
-14.21777   0.00000  11.99981
-14.16771   0.00000  11.99981
-14.11765   0.00000  11.99981
-14.06758   0.00000  11.99981
-14.01752   0.00000  11.99981
-13.96746   0.00000  11.99981
-13.91740   0.00000  11.99981
-13.86733   0.00000  11.99981
-13.81727   0.00000  11.99981
-13.76721   0.00000  11.99981
-13.71715   0.00000  11.99981
-13.66708   0.00000  11.99981
-13.61702   0.00000  11.99981
-13.56696   0.00000  11.99981
-13.51690   0.00000  11.99981
-13.46683   0.00000  11.99981
-13.41677   0.00000  11.99981
-13.36671   0.00000  11.99981
-13.31665   0.00000  11.99981
-13.26658   0.00000  11.99981
-13.21652   0.00000  11.99981
-13.16646   0.00000  11.99981
-13.11640   0.00000  11.99981
-13.06633   0.00000  11.99981
-13.01627   0.00000  11.99981
-12.96621   0.00000  11.99981
-12.91615   0.00000  11.99981
-12.86608   0.00000  11.99981
-12.81602   0.00000  11.99981
-12.76596   0.00000  11.99981
-12.71589   0.00000  11.99981
-12.66583   0.00000  11.99981
-12.61577   0.00000  11.99981
-12.56571   0.00000  11.99981
-12.51564   0.00000  11.99981
-12.46558   0.00000  11.99981
-12.41552   0.00000  11.99981
-12.36546   0.00000  11.99981
-12.31539   0.00000  11.99981
-12.26533   0.00000  11.99981
-12.21527   0.00000  11.99981
-12.16521   0.00000  11.99981
-12.11514   0.00000  11.99981
-12.06508   0.00000  11.99981
-12.01502   0.00000  11.99981
-11.96496   0.00000  11.99981
-11.91489   0.00000  11.99981
-11.86483   0.00000  11.99981
-11.81477   0.00000  11.99981
-11.76471   0.00000  11.99981
-11.71464   0.00000  11.99981
-11.66458   0.00000  11.99981
-11.61452   0.00000  11.99981
-11.56446   0.00000  11.99981
-11.51439   0.00000  11.99981
-11.46433   0.00000  11.99981
-11.41427   0.00000  11.99981
-11.36421   0.00000  11.99981
-11.31414   0.00000  11.99981
-11.26408   0.00000  11.99981
-11.21402   0.00000  11.99981
-11.16395   0.00000  11.99981
-11.11389   0.00000  11.99981
-11.06383   0.00000  11.99981
-11.01377   0.00000  11.99981
-10.96370   0.00000  11.99981
-10.91364   0.00000  11.99981
-10.86358   0.00000  11.99981
-10.81352   0.00000  11.99981
-10.76345   0.00000  11.99981
-10.71339   0.00000  11.99981
-10.66333   0.00000  11.99981
-10.61327   0.00000  11.99981
-10.56320   0.00000  11.99981
-10.51314   0.00000  11.99981
-10.46308   0.00000  11.99981
-10.41302   0.00000  11.99981
-10.36295   0.00000  11.99981
-10.31289   0.00000  11.99981
-10.26283   0.00000  11.99981
-10.21277   0.00000  11.99981
-10.16270   0.00000  11.99981
-10.11264   0.00000  11.99981
-10.06258   0.00000  11.99981
-10.01252   0.00000  11.99981
 -9.96245   0.00000  11.99981
 -9.91239   0.00000  11.99981
 -9.86233   0.00000  11.99981
 -9.81227   0.00000  11.99981
 -9.76220   0.00000  11.99981
 -9.71214   0.00000  11.99981
 -9.66208   0.00000  11.99981
 -9.61202   0.00000  11.99981
 -9.56195   0.00000  11.99981
 -9.51189   0.00000  11.99981
 -9.46183   0.00000  11.99981
 -9.41176   0.00000  11.99981
 -9.36170   0.00000  11.99981
 -9.31164   0.00002  11.99981
 -9.26158   0.03787  12.00170
 -9.21151   0.20231  12.01183
 -9.16145   0.29497  12.02660
 -9.11139   0.35539  12.04439
 -9.06133   0.44524  12.06668
 -9.01126   0.52088  12.09276
 -8.96120   0.58576  12.12208
 -8.91114   0.65603  12.15493
 -8.86108   0.73106  12.19152
 -8.81101   0.80871  12.23201
 -8.76095   0.90357  12.27724
 -8.71089   1.00923  12.32777
 -8.66083   1.12276  12.38398
 -8.61076   1.25707  12.44691
 -8.56070   1.44802  12.51940
 -8.51064   1.69624  12.60432
 -8.46058   2.02983  12.70594
 -8.41051   3.17752  12.86501
 -8.36045   9.89632  13.36045
 -8.31039   5.01507  13.61152
 -8.26033   2.87159  13.75527
 -8.21026   1.93914  13.85235
 -8.16020   1.04094  13.90446
 -8.11014   0.75513  13.94227
 -8.06008   0.56296  13.97045
 -8.01001   0.46481  13.99372
 -7.95995   0.39819  14.01366
 -7.90989   0.35757  14.03156
 -7.85982   0.32119  14.04764
 -7.80976   0.35386  14.06535
 -7.75970   0.43640  14.08720
 -7.70964   0.55107  14.11479
 -7.65957   0.66192  14.14792
 -7.60951   0.74327  14.18513
 -7.55945   0.84406  14.22739
 -7.50939   1.03561  14.27924
 -7.45932   1.26066  14.34235
 -7.40926   1.62634  14.42377
 -7.35920   2.26665  14.53724
 -7.30914   3.28353  14.70162
 -7.25907   4.73259  14.93855
 -7.20901   5.67610  15.22271
 -7.15895   3.51738  15.39880
 -7.10889   2.47001  15.52245
 -7.05882   1.86308  15.61572
 -7.00876   1.51634  15.69163
 -6.95870   1.25829  15.75463
 -6.90864   1.01993  15.80569
 -6.85857   0.72091  15.84178
 -6.80851   0.63935  15.87379
 -6.75845   0.55233  15.90144
 -6.70839   0.46457  15.92469
 -6.65832   0.38382  15.94391
 -6.60826   0.31447  15.95965
 -6.55820   0.25120  15.97223
 -6.50814   0.83465  16.01401
 -6.45807   2.22044  16.12517
 -6.40801   2.54538  16.25260
 -6.35795   3.54777  16.43021
 -6.30788   3.46421  16.60364
 -6.25782   3.00073  16.75386
 -6.20776   2.75384  16.89173
 -6.15770   2.52181  17.01798
 -6.10763   2.32426  17.13434
 -6.05757   2.16882  17.24291
 -6.00751   2.09539  17.34781
 -5.95745   2.03587  17.44973
 -5.90738   1.84808  17.54225
 -5.85732   1.62988  17.62385
 -5.80726   1.41131  17.69450
 -5.75720   1.19780  17.75447
 -5.70713   1.04930  17.80700
 -5.65707   0.94264  17.85419
 -5.60701   0.82991  17.89574
 -5.55695   0.73810  17.93269
 -5.50688   1.45918  18.00574
 -5.45682   2.72087  18.14195
 -5.40676  12.74048  18.77977
 -5.35670  16.33494  19.59754
 -5.30663   8.85006  20.04060
 -5.25657   9.25740  20.50405
 -5.20651   7.66866  20.88796
 -5.15645   5.17293  21.14693
 -5.10638   5.01483  21.39799
 -5.05632   6.63172  21.72999
 -5.00626   5.98652  22.02969
 -4.95620   2.05420  22.13253
 -4.90613   6.42926  22.45439
 -4.85607   7.95478  22.85263
 -4.80601   6.75858  23.19098
 -4.75594   4.83772  23.43317
 -4.70588   3.97711  23.63227
 -4.65582   3.19583  23.79226
 -4.60576   2.47810  23.91633
 -4.55569   1.33525  23.98317
 -4.50563   0.32848  23.99962
 -4.45557   0.00000  23.99962
 -4.40551   0.00000  23.99962
 -4.35544   0.00000  23.99962
 -4.30538   0.00000  23.99962
 -4.25532   0.00000  23.99962
 -4.20526   0.00000  23.99962
 -4.15519   0.00000  23.99962
 -4.10513   0.00000  23.99962
 -4.05507   0.00000  23.99962
 -4.00501   0.00000  23.99962
 -3.95494   0.00000  23.99962
 -3.90488   0.00000  23.99962
 -3.85482   0.00000  23.99962
 -3.80476   0.00000  23.99962
 -3.75469   0.00000  23.99962
 -3.70463   0.00000  23.99962
 -3.65457   0.00000  23.99962
 -3.60451   0.00000  23.99962
 -3.55444   0.00000  23.99962
 -3.50438   0.00000  23.99962
 -3.45432   0.00000  23.99962
 -3.40426   0.00000  23.99962
 -3.35419   0.00000  23.99962
 -3.30413   0.00000  23.99962
 -3.25407   0.00000  23.99962
 -3.20401   2.84208  24.14190
 -3.15394  10.85306  24.68523
 -3.10388  12.82168  25.32712
 -3.05382   9.59536  25.80748
 -3.00375   6.47755  26.13177
 -2.95369   5.62380  26.41331
 -2.90363   5.25651  26.67646
 -2.85357   7.76531  27.06522
 -2.80350   7.29765  27.43055
 -2.75344   7.07832  27.78491
 -2.70338   5.20784  28.04563
 -2.65332   5.77188  28.33459
 -2.60325   8.30312  28.75026
 -2.55319  12.24531  29.36329
 -2.50313   5.20158  29.62370
 -2.45307   4.34616  29.84128
 -2.40300   3.27243  30.00510
 -2.35294   1.73481  30.09195
 -2.30288   4.06815  30.29562
 -2.25282  11.74774  30.88374
 -2.20275  10.79839  31.42433
 -2.15269   5.48714  31.69903
 -2.10263   3.53572  31.87604
 -2.05257   4.14740  32.08367
 -2.00250  12.13012  32.69094
 -1.95244  14.92960  33.43835
 -1.90238   8.25966  33.85185
 -1.85232   1.62757  33.93333
 -1.80225   2.69643  34.06832
 -1.75219   4.57157  34.29718
 -1.70213   6.60681  34.62794
 -1.65207   6.07416  34.93203
 -1.60200   8.40074  35.35259
 -1.55194  11.61477  35.93405
 -1.50188  10.35580  36.45249
 -1.45181  11.89486  37.04798
 -1.40175   8.36506  37.46676
 -1.35169   5.16724  37.72544
 -1.30163   4.68838  37.96015
 -1.25156   7.78223  38.34975
 -1.20150   8.47987  38.77428
 -1.15144  12.30326  39.39021
 -1.10138  10.11685  39.89668
 -1.05131   5.08856  40.15143
 -1.00125   7.38077  40.52093
 -0.95119  11.98109  41.12074
 -0.90113  14.66633  41.85497
 -0.85106   2.88354  41.99933
 -0.80100   2.09836  42.10438
 -0.75094   9.32019  42.57097
 -0.70088  10.48441  43.09585
 -0.65081   7.80910  43.48679
 -0.60075   4.18487  43.69630
 -0.55069   5.68130  43.98072
 -0.50063   4.53587  44.20779
 -0.45056   4.54922  44.43554
 -0.40050   5.16832  44.69428
 -0.35044   7.00609  45.04502
 -0.30038  10.91813  45.59161
 -0.25031   9.60521  46.07247
 -0.20025   5.24504  46.33505
 -0.15019   7.08046  46.68952
 -0.10013   8.91500  47.13583
 -0.05006  12.24983  47.74908
  0.00000   4.99668  47.99923
  0.05006   0.00000  47.99923
  0.10013   0.00000  47.99923
  0.15019   0.00000  47.99923
  0.20025   0.00000  47.99923
  0.25031   0.00000  47.99923
  0.30038   0.00000  47.99923
  0.35044   0.00000  47.99923
  0.40050   0.00000  47.99923
  0.45056   0.00000  47.99923
  0.50063   0.00000  47.99923
  0.55069   0.00000  47.99923
  0.60075   0.00000  47.99923
  0.65081   0.00000  47.99923
  0.70088   0.00000  47.99923
  0.75094   0.00000  47.99923
  0.80100   0.00000  47.99923
  0.85106   0.00000  47.99923
  0.90113   0.00000  47.99923
  0.95119   0.00000  47.99923
  1.00125   0.00000  47.99923
  1.05131   0.00000  47.99923
  1.10138   0.00000  47.99923
  1.15144   0.00000  47.99923
  1.20150   0.00000  47.99923
  1.25156   0.00000  47.99923
  1.30163   0.00000  47.99923
  1.35169   0.00000  47.99923
  1.40175   0.00000  47.99923
  1.45181   0.00000  47.99923
  1.50188   0.00000  47.99923
  1.55194   0.00000  47.99923
  1.60200   0.00000  47.99923
  1.65207   0.00000  47.99923
  1.70213   0.00000  47.99923
  1.75219   0.00000  47.99923
  1.80225   0.00000  47.99923
  1.85232   0.00000  47.99923
  1.90238   0.00000  47.99923
  1.95244   0.00000  47.99923
  2.00250   0.00000  47.99923
  2.05257   0.00000  47.99923
  2.10263   0.00000  47.99923
  2.15269   0.00000  47.99923
  2.20275   0.00000  47.99923
  2.25282   0.00000  47.99923
  2.30288   0.00000  47.99923
  2.35294   0.00000  47.99923
  2.40300   0.00000  47.99923
  2.45307   0.00000  47.99923
  2.50313   0.00000  47.99923
  2.55319   0.00000  47.99923
  2.60325   0.00000  47.99923
  2.65332   0.00000  47.99923
  2.70338   0.00000  47.99923
  2.75344   0.00000  47.99923
  2.80350   0.00000  47.99923
  2.85357   0.00000  47.99923
  2.90363   0.00000  47.99923
  2.95369   0.00000  47.99923
  3.00375   0.00000  47.99923
  3.05382   0.00000  47.99923
  3.10388   0.00000  47.99923
  3.15394   0.00000  47.99923
  3.20401   0.00000  47.99923
  3.25407   0.00000  47.99923
  3.30413   0.00000  47.99923
  3.35419   0.00000  47.99923
  3.40426   0.00000  47.99923
  3.45432   0.00000  47.99923
  3.50438   0.00000  47.99923
  3.55444   0.00000  47.99923
  3.60451   0.00000  47.99923
  3.65457   0.00000  47.99923
  3.70463   0.00000  47.99923
  3.75469   0.00000  47.99923
  3.80476   0.00000  47.99923
  3.85482   0.00000  47.99923
  3.90488   0.00000  47.99923
  3.95494   0.00000  47.99923
  4.00501   0.00000  47.99923
  4.05507   0.00000  47.99923
  4.10513   0.00000  47.99923
  4.15519   0.00000  47.99923
  4.20526   0.00000  47.99923
  4.25532   0.00000  47.99923
  4.30538   0.00000  47.99923
  4.35544   0.00000  47.99923
  4.40551   0.00000  47.99923
  4.45557   0.00000  47.99923
  4.50563   0.00000  47.99923
  4.55569   0.00000  47.99923
  4.60576   0.00000  47.99923
  4.65582   0.00000  47.99923
  4.70588   0.00000  47.99923
  4.75594   0.00000  47.99923
  4.80601   0.00000  47.99923
  4.85607   0.00000  47.99923
  4.90613   0.00000  47.99923
  4.95620   0.00000  47.99923
  5.00626   0.00000  47.99923
  5.05632   0.00000  47.99923
  5.10638   0.00000  47.99923
  5.15645   0.00000  47.99923
  5.20651   0.00000  47.99923
  5.25657   0.00000  47.99923
  5.30663   0.00000  47.99923
  5.35670   0.00000  47.99923
  5.40676   0.00000  47.99923
  5.45682   0.00000  47.99923
  5.50688   0.00000  47.99923
  5.55695   0.00000  47.99923
  5.60701   0.00000  47.99923
  5.65707   0.00000  47.99923
  5.70713   0.00000  47.99923
  5.75720   0.00000  47.99923
  5.80726   0.00000  47.99923
  5.85732   0.00000  47.99923
  5.90738   0.00000  47.99923
  5.95745   0.00003  47.99923
  6.00751   0.00566  47.99952
  6.05757   0.02878  48.00096
  6.10763   0.07100  48.00451
  6.15770   0.11449  48.01024
  6.20776   0.13635  48.01707
  6.25782   0.14643  48.02440
  6.30788   0.15832  48.03233
  6.35795   0.17915  48.04129
  6.40801   0.20089  48.05135
  6.45807   0.22277  48.06250
  6.50814   0.24238  48.07464
  6.55820   0.25927  48.08762
  6.60826   0.27460  48.10136
  6.65832   0.29034  48.11590
  6.70839   0.30692  48.13127
  6.75845   0.32469  48.14752
  6.80851   0.34264  48.16467
  6.85857   0.36072  48.18273
  6.90864   0.37891  48.20170
  6.95870   0.39712  48.22158
  7.00876   0.41631  48.24242
  7.05882   0.43798  48.26435
  7.10889   0.45971  48.28736
  7.15895   0.48139  48.31146
  7.20901   0.50329  48.33666
  7.25907   0.52484  48.36293
  7.30914   0.54580  48.39026
  7.35920   0.56734  48.41866
  7.40926   0.59100  48.44825
  7.45932   0.61720  48.47915
  7.50939   0.64468  48.51142
  7.55945   0.67433  48.54518
  7.60951   0.70602  48.58053
  7.65957   0.73857  48.61750
  7.70964   0.77202  48.65615
  7.75970   0.80673  48.69654
  7.80976   0.84273  48.73873
  7.85982   0.88412  48.78299
  7.90989   0.93489  48.82979
  7.95995   0.98512  48.87911
  8.01001   1.03707  48.93103
  8.06008   1.09202  48.98569
  8.11014   1.15043  49.04329
  8.16020   1.24254  49.10549
  8.21026   1.51157  49.18117
  8.26033   1.50902  49.25671
  8.31039   1.44805  49.32920
  8.36045   1.47655  49.40312
  8.41051   1.49482  49.47796
  8.46058   1.49522  49.55281
  8.51064   1.49263  49.62754
  8.56070   1.53462  49.70437
  8.61076   1.66353  49.78765
  8.66083   1.68083  49.87179
  8.71089   1.70913  49.95736
  8.76095   1.75133  50.04503
  8.81101   1.61536  50.12590
  8.86108   1.24230  50.18809
  8.91114   0.77220  50.22675
  8.96120   0.79716  50.26666
  9.01126   1.06332  50.31989
  9.06133   2.03225  50.42163
  9.11139   3.88052  50.61590
  9.16145   6.63413  50.94802
  9.21151   8.40700  51.36890
  9.26158   9.32794  51.83588
  9.31164   5.22459  52.09744
  9.36170   4.34733  52.31507
  9.41176   6.27118  52.62903
  9.46183   7.00711  52.97982
  9.51189   6.66889  53.31368
  9.56195   6.46134  53.63715
  9.61202   6.64275  53.96971
  9.66208   5.98574  54.26937
  9.71214   3.41006  54.44008
  9.76220   2.73765  54.57714
  9.81227   3.05146  54.72990
  9.86233   4.89516  54.97497
  9.91239   5.81274  55.26597
  9.96245   6.66175  55.59947
 10.01252   6.94460  55.94714
 10.06258   3.92005  56.14338
 10.11264   3.36749  56.31197
 10.16270   4.93181  56.55887
 10.21277   8.22762  56.97076
 10.26283   7.68459  57.35547
 10.31289   4.99154  57.60536
 10.36295   3.85280  57.79824
 10.41302   2.76159  57.93650
 10.46308   4.69712  58.17165
 10.51314  12.89486  58.81720
 10.56320  10.92527  59.36414
 10.61327   6.27251  59.67816
 10.66333   4.27350  59.89210
 10.71339   4.68342  60.12657
 10.76345   4.82686  60.36821
 10.81352   4.72708  60.60486
 10.86358   4.74152  60.84224
 10.91364   3.84448  61.03470
 10.96370   3.26943  61.19838
 11.01377   3.71442  61.38433
 11.06383   2.94927  61.53198
 11.11389   3.65944  61.71518
 11.16395   4.53250  61.94209
 11.21402   4.90847  62.18782
 11.26408   4.69030  62.42263
 11.31414   3.67848  62.60678
 11.36421   3.54446  62.78423
 11.41427   3.93400  62.98117
 11.46433   4.45689  63.20430
 11.51439   4.68739  63.43896
 11.56446   4.76772  63.67764
 11.61452   3.61926  63.85883
 11.66458   3.36924  64.02750
 11.71464   3.24536  64.18998
 11.76471   3.47779  64.36408
 11.81477   4.06736  64.56771
 11.86483   4.99502  64.81777
 11.91489   5.97746  65.11702
 11.96496   6.05424  65.42011
 12.01502   5.59809  65.70036
 12.06508   5.57886  65.97965
 12.11514   5.14147  66.23705
 12.16521   4.92286  66.48350
 12.21527   4.87197  66.72740
 12.26533   5.22416  66.98894
 12.31539   5.87198  67.28291
 12.36546   7.20953  67.64383
 12.41552   8.29089  68.05890
 12.46558   6.19003  68.36879
 12.51564   6.00317  68.66932
 12.56571   6.76658  69.00807
 12.61577   5.55218  69.28603
 12.66583   5.32748  69.55274
 12.71589   4.20197  69.76310
 12.76596   3.80949  69.95381
 12.81602   3.62932  70.13550
 12.86608   4.55470  70.36352
 12.91615   4.39458  70.58353
 12.96621   4.57799  70.81271
 13.01627   4.01425  71.01368
 13.06633   3.00590  71.16416
 13.11640   2.39907  71.28426
 13.16646   1.97594  71.38318
 13.21652   1.72209  71.46940
 13.26658   1.60785  71.54989
 13.31665   1.49139  71.62455
 13.36671   1.33206  71.69124
 13.41677   1.21066  71.75185
 13.46683   1.21522  71.81268
 13.51690   1.09579  71.86754
 13.56696   0.87417  71.91131
 13.61702   0.76275  71.94949
 13.66708   0.63480  71.98127
 13.71715   0.30553  71.99657
 13.76721   0.04356  71.99875
 13.81727   0.00000  71.99875
 13.86733   0.00000  71.99875
 13.91740   0.00000  71.99875
 13.96746   0.00000  71.99875
 14.01752   0.00000  71.99875
 14.06758   0.00000  71.99875
 14.11765   0.00000  71.99875
 14.16771   0.00000  71.99875
 14.21777   0.00000  71.99875
 14.26783   0.00000  71.99875
 14.31790   0.00000  71.99875
 14.36796   0.00000  71.99875
 14.41802   0.00000  71.99875
 14.46809   0.00000  71.99875
 14.51815   0.00000  71.99875
 14.56821   0.00000  71.99875
 14.61827   0.00000  71.99875
 14.66834   0.00000  71.99875
 14.71840   0.00000  71.99875
 14.76846   0.00000  71.99875
 14.81852   0.00000  71.99875
 14.86859   0.00000  71.99875
 14.91865   0.00000  71.99875
 14.96871   0.00000  71.99875
 15.01877   0.00000  71.99875
 15.06884   0.00000  71.99875
 15.11890   0.00000  71.99875
 15.16896   0.00000  71.99875
 15.21902   0.00000  71.99875
 15.26909   0.00000  71.99875
 15.31915   0.00000  71.99875
 15.36921   0.00000  71.99875
 15.41927   0.00000  71.99875
 15.46934   0.00000  71.99875
 15.51940   0.00000  71.99875
 15.56946   0.00000  71.99875
 15.61952   0.00000  71.99875
 15.66959   0.00000  71.99875
 15.71965   0.00000  71.99875
 15.76971   0.00000  71.99875
 15.81977   0.00000  71.99875
 15.86984   0.00000  71.99875
 15.91990   0.00000  71.99875
 15.96996   0.00000  71.99875
 16.02003   0.00000  71.99875
 16.07009   0.00000  71.99875
 16.12015   0.00000  71.99875
 16.17021   0.00000  71.99875
 16.22028   0.00000  71.99875
 16.27034   0.00000  71.99875
 16.32040   0.00000  71.99875
 16.37046   0.00000  71.99875
 16.42053   0.00000  71.99875
 16.47059   0.00000  71.99875
 16.52065   0.00000  71.99875
 16.57071   0.00000  71.99875
 16.62078   0.00000  71.99875
 16.67084   0.00000  71.99875
 16.72090   0.00000  71.99875
 16.77096   0.00000  71.99875
 16.82103   0.00000  71.99875
 16.87109   0.00000  71.99875
 16.92115   0.00000  71.99875
 16.97121   0.00000  71.99875
 17.02128   0.00000  71.99875
 17.07134   0.00000  71.99875
 17.12140   0.00000  71.99875
 17.17146   0.00000  71.99875
 17.22153   0.00000  71.99875
 17.27159   0.00000  71.99875
 17.32165   0.00000  71.99875
 17.37171   0.00000  71.99875
 17.42178   0.00000  71.99875
 17.47184   0.00000  71.99875
 17.52190   0.00000  71.99875
 17.57196   0.00000  71.99875
 17.62203   0.00000  71.99875
 17.67209   0.00000  71.99875
 17.72215   0.00000  71.99875
 17.77222   0.00000  71.99875
 17.82228   0.00000  71.99875
 17.87234   0.00000  71.99875
 17.92240   0.00000  71.99875
 17.97247   0.00000  71.99875
 18.02253   0.00000  71.99875
 18.07259   0.00000  71.99875
 18.12265   0.00000  71.99875
 18.17272   0.00000  71.99875
 18.22278   0.00000  71.99875
 18.27284   0.00000  71.99875
 18.32290   0.00000  71.99875
 18.37297   0.00000  71.99875
 18.42303   0.00000  71.99875
 18.47309   0.00000  71.99875
 18.52315   0.00000  71.99875
 18.57322   0.00000  71.99875
 18.62328   0.00000  71.99875
 18.67334   0.00000  71.99875
 18.72340   0.00000  71.99875
 18.77347   0.00000  71.99875
 18.82353   0.00000  71.99875
 18.87359   0.00000  71.99875
 18.92365   0.00000  71.99875
 18.97372   0.00000  71.99875
 19.02378   0.00000  71.99875
 19.07384   0.00000  71.99875
 19.12390   0.00000  71.99875
 19.17397   0.00000  71.99875
 19.22403   0.00000  71.99875
 19.27409   0.00000  71.99875
 19.32416   0.00000  71.99875
 19.37422   0.00000  71.99875
 19.42428   0.00000  71.99875
 19.47434   0.00000  71.99875
 19.52441   0.00000  71.99875
 19.57447   0.00000  71.99875
 19.62453   0.00000  71.99875
 19.67459   0.00000  71.99875
 19.72466   0.00000  71.99875
 19.77472   0.00000  71.99875
 19.82478   0.00000  71.99875
 19.87484   0.00000  71.99875
 19.92491   0.00000  71.99875
 19.97497   0.00000  71.99875
 20.02503   0.00000  71.99875
     20.02503129     -20.02503129   801       1.05552776       1.00000000; Z= 14; 3s 3p_y 3p_z 3p_x 
-20.02503   0.00000   0.00000   0.00000   0.00000
-19.97497   0.00000   0.00000   0.00000   0.00000
-19.92491   0.00000   0.00000   0.00000   0.00000
-19.87484   0.00000   0.00000   0.00000   0.00000
-19.82478   0.00000   0.00000   0.00000   0.00000
-19.77472   0.00000   0.00000   0.00000   0.00000
-19.72466   0.00000   0.00000   0.00000   0.00000
-19.67459   0.00000   0.00000   0.00000   0.00000
-19.62453   0.00000   0.00000   0.00000   0.00000
-19.57447   0.00000   0.00000   0.00000   0.00000
-19.52441   0.00000   0.00000   0.00000   0.00000
-19.47434   0.00000   0.00000   0.00000   0.00000
-19.42428   0.00000   0.00000   0.00000   0.00000
-19.37422   0.00808  -0.00005  -0.00018  -0.00005
-19.32416   0.04770  -0.00043  -0.00170  -0.00046
-19.27409   0.07123  -0.00077  -0.00267  -0.00094
-19.22403   0.08882  -0.00095  -0.00285  -0.00134
-19.17397   0.10804  -0.00094  -0.00294  -0.00159
-19.12390   0.12814  -0.00055  -0.00293  -0.00147
-19.07384   0.15102   0.00011  -0.00251  -0.00114
-19.02378   0.17977   0.00139  -0.00160  -0.00020
-18.97372   0.22194   0.00350   0.00027   0.00128
-18.92365   0.30260   0.00783   0.00380   0.00384
-18.87359   0.44331   0.01955   0.01186   0.00991
-18.82353   0.43938   0.03587   0.01232   0.01499
-18.77347   0.10063   0.00568   0.00267   0.00330
-18.72340   0.03392   0.00110   0.00129   0.00103
-18.67334   0.04568   0.00207   0.00229   0.00181
-18.62328   0.05709   0.00352   0.00383   0.00296
-18.57322   0.07129   0.00562   0.00563   0.00462
-18.52315   0.11380   0.01032   0.00939   0.00908
-18.47309   0.16968   0.01858   0.01442   0.01637
-18.42303   0.41940   0.05527   0.03086   0.05035
-18.37297   0.26259   0.03816   0.02747   0.03262
-18.32290   0.12936   0.01592   0.01914   0.01517
-18.27284   0.08032   0.00925   0.01532   0.00880
-18.22278   0.05557   0.00611   0.01328   0.00591
-18.17272   0.04221   0.00454   0.01231   0.00465
-18.12265   0.02905   0.00300   0.01064   0.00330
-18.07259   0.02167   0.00239   0.00852   0.00296
-18.02253   0.02703   0.00485   0.00883   0.00624
-17.97247   0.03587   0.00923   0.00980   0.01089
-17.92240   0.07744   0.02430   0.01830   0.02664
-17.87234   0.13710   0.06656   0.03488   0.04678
-17.82228   0.23292   0.11282   0.09236   0.06584
-17.77222   0.07905   0.03070   0.03915   0.02908
-17.72215   0.04870   0.02005   0.02739   0.02228
-17.67209   0.03462   0.01569   0.02206   0.01898
-17.62203   0.02560   0.01292   0.01913   0.01657
-17.57196   0.01921   0.01110   0.01668   0.01472
-17.52190   0.01369   0.00956   0.01439   0.01299
-17.47184   0.01004   0.00815   0.01285   0.01131
-17.42178   0.00671   0.00677   0.01170   0.00959
-17.37171   0.00410   0.00558   0.00959   0.00798
-17.32165   0.00212   0.02670   0.07182   0.06015
-17.27159   0.00128   0.35851   0.81002   0.44429
-17.22153   0.00119   0.89201   0.43584   0.66148
-17.17146   0.00014   0.16148   0.01184   0.07668
-17.12140   0.00000   0.00000   0.00000   0.00000
-17.07134   0.00000   0.00000   0.00000   0.00000
-17.02128   0.00000   0.00000   0.00000   0.00000
-16.97121   0.00000   0.00000   0.00000   0.00000
-16.92115   0.00000   0.00000   0.00000   0.00000
-16.87109   0.00000   0.00000   0.00000   0.00000
-16.82103   0.00000   0.00000   0.00000   0.00000
-16.77096   0.00000   0.00000   0.00000   0.00000
-16.72090   0.00000   0.00000   0.00000   0.00000
-16.67084   0.00000   0.00000   0.00000   0.00000
-16.62078   0.00000   0.00000   0.00000   0.00000
-16.57071   0.00000   0.00000   0.00000   0.00000
-16.52065   0.00000   0.00000   0.00000   0.00000
-16.47059   0.00000   0.00000   0.00000   0.00000
-16.42053   0.00000   0.00000   0.00000   0.00000
-16.37046   0.00000   0.00000   0.00000   0.00000
-16.32040   0.00000   0.00000   0.00000   0.00000
-16.27034   0.00000   0.00000   0.00000   0.00000
-16.22028   0.00000   0.00000   0.00000   0.00000
-16.17021   0.00000   0.00000   0.00000   0.00000
-16.12015   0.00000   0.00000   0.00000   0.00000
-16.07009   0.00000   0.00000   0.00000   0.00000
-16.02003   0.00000   0.00000   0.00000   0.00000
-15.96996   0.00000   0.00000   0.00000   0.00000
-15.91990   0.00000   0.00000   0.00000   0.00000
-15.86984   0.00000   0.00000   0.00000   0.00000
-15.81977   0.00000   0.00000   0.00000   0.00000
-15.76971   0.00000   0.00000   0.00000   0.00000
-15.71965   0.00000   0.00000   0.00000   0.00000
-15.66959   0.00000   0.00000   0.00000   0.00000
-15.61952   0.00000   0.00000   0.00000   0.00000
-15.56946   0.00000   0.00000   0.00000   0.00000
-15.51940   0.00000   0.00000   0.00000   0.00000
-15.46934   0.00000   0.00000   0.00000   0.00000
-15.41927   0.00000   0.00000   0.00000   0.00000
-15.36921   0.00000   0.00000   0.00000   0.00000
-15.31915   0.00000   0.00000   0.00000   0.00000
-15.26909   0.00000   0.00000   0.00000   0.00000
-15.21902   0.00000   0.00000   0.00000   0.00000
-15.16896   0.00000   0.00000   0.00000   0.00000
-15.11890   0.00000   0.00000   0.00000   0.00000
-15.06884   0.00000   0.00000   0.00000   0.00000
-15.01877   0.00000   0.00000   0.00000   0.00000
-14.96871   0.00000   0.00000   0.00000   0.00000
-14.91865   0.00000   0.00000   0.00000   0.00000
-14.86859   0.00000   0.00000   0.00000   0.00000
-14.81852   0.00000   0.00000   0.00000   0.00000
-14.76846   0.00000   0.00000   0.00000   0.00000
-14.71840   0.00000   0.00000   0.00000   0.00000
-14.66834   0.00000   0.00000   0.00000   0.00000
-14.61827   0.00000   0.00000   0.00000   0.00000
-14.56821   0.00000   0.00000   0.00000   0.00000
-14.51815   0.00000   0.00000   0.00000   0.00000