 vasp.6.3.2 27Jun22 (build Mar 25 2023 04:39:50) complex                        
  
 executed on             LinuxIFC date 2025.12.13  05:26:32
 running on   64 total cores
 distrk:  each k-point on   64 cores,    1 groups
 distr:  one band on NCORE=   1 cores,   64 groups


--------------------------------------------------------------------------------------------------------


 INCAR:
   GGA = PE
   PREC = Accurate
   ENCUT = 520
   KSPACING = 0.3
   ISMEAR = 0
   SIGMA = 0.03
   EDIFF = 1e-8
   NELM = 120
   NELMIN = 8

 POTCAR:    PAW_PBE Zn 06Sep2000                  
 POTCAR:    PAW_PBE S 06Sep2000                   
 -----------------------------------------------------------------------------
|                                                                             |
|           W    W    AA    RRRRR   N    N  II  N    N   GGGG   !!!           |
|           W    W   A  A   R    R  NN   N  II  NN   N  G    G  !!!           |
|           W    W  A    A  R    R  N N  N  II  N N  N  G       !!!           |
|           W WW W  AAAAAA  RRRRR   N  N N  II  N  N N  G  GGG   !            |
|           WW  WW  A    A  R   R   N   NN  II  N   NN  G    G                |
|           W    W  A    A  R    R  N    N  II  N    N   GGGG   !!!           |
|                                                                             |
|     For optimal performance we recommend to set                             |
|       NCORE = 2 up to number-of-cores-per-socket                            |
|     NCORE specifies how many cores store one orbital (NPAR=cpu/NCORE).      |
|     This setting can greatly improve the performance of VASP for DFT.       |
|     The default, NCORE=1 might be grossly inefficient on modern             |
|     multi-core architectures or massively parallel machines. Do your        |
|     own testing! More info at https://www.vasp.at/wiki/index.php/NCORE      |
|     Unfortunately you need to use the default for GW and RPA                |
|     calculations (for HF NCORE is supported but not extensively tested      |
|     yet).                                                                   |
|                                                                             |
 -----------------------------------------------------------------------------

 POTCAR:    PAW_PBE Zn 06Sep2000                  
   SHA256 =  501fddbd8274dd8e9725d4f3de27861d7f1e553a7e18441bc79fed8f346e7f23 Zn/POTCAR             
   COPYR  = (c) Copyright 06Sep2000 Georg Kresse                                                    
   COPYR  = This file is part of the software VASP. Any use, copying, and all other rights are regul
   COPYR  = If you do not have a valid VASP license, you may not use, copy or distribute this file. 
   VRHFIN =Zn: d10 p2                                                                               
   LEXCH  = PE                                                                                      
   EATOM  =  1748.8345 eV,  128.5357 Ry                                                             
                                                                                                    
   TITEL  = PAW_PBE Zn 06Sep2000                                                                    
   LULTRA =        F    use ultrasoft PP ?                                                          
   IUNSCR =        1    unscreen: 0-lin 1-nonlin 2-no                                               
   RPACOR =    2.000    partial core radius                                                         
   POMASS =   65.390; ZVAL   =   12.000    mass and valenz                                          
   RCORE  =    2.300    outmost cutoff radius                                                       
   RWIGS  =    2.400; RWIGS  =    1.270    wigner-seitz radius (au A)                               
   ENMAX  =  276.723; ENMIN  =  207.542 eV                                                          
   RCLOC  =    1.828    cutoff for local pot                                                        
   LCOR   =        T    correct aug charges                                                         
   LPAW   =        T    paw PP                                                                      
   EAUG   =  575.892                                                                                
   DEXC   =    0.000                                                                                
   RMAX   =    2.347    core radius for proj-oper                                                   
   RAUG   =    1.300    factor for augmentation sphere                                              
   RDEP   =    2.324    radius for radial grids                                                     
   RDEPT  =    1.788    core radius for aug-charge                                                  
                                                                                                    
   Atomic configuration                                                                             
    9 entries                                                                                       
     n  l   j            E        occ.                                                              
     1  0  0.50     -9524.6913   2.0000                                                             
     2  0  0.50     -1158.1882   2.0000                                                             
     2  1  1.50     -1003.8506   6.0000                                                             
     3  0  0.50      -129.2194   2.0000                                                             
     3  1  1.50       -83.3890   6.0000                                                             
     3  2  2.50       -10.1410  10.0000                                                             
     4  0  0.50        -5.9785   2.0000                                                             
     4  1  0.50        -4.0817   0.0000                                                             
     4  3  2.50        -1.3606   0.0000                                                             
   Description                                                                                      
     l       E           TYP  RCUT    TYP  RCUT                                                     
     2    -10.1410010     23  2.300                                                                 
     2    -11.5015836     23  2.300                                                                 
     0     -5.9785163     23  2.300                                                                 
     0      1.1858015     23  2.300                                                                 
     1     -2.7211652     23  2.300                                                                 
     1     13.2444212     23  2.300                                                                 
  local pseudopotential read in
  partial core-charges read in
  partial kinetic energy density read in
  atomic valenz-charges read in
  non local Contribution for L=           2  read in
    real space projection operators read in
  non local Contribution for L=           2  read in
    real space projection operators read in
  non local Contribution for L=           0  read in
    real space projection operators read in
  non local Contribution for L=           0  read in
    real space projection operators read in
  non local Contribution for L=           1  read in
    real space projection operators read in
  non local Contribution for L=           1  read in
    real space projection operators read in
    PAW grid and wavefunctions read in
 
   number of l-projection  operators is LMAX  =           6
   number of lm-projection operators is LMMAX =          18
 
 POTCAR:    PAW_PBE S 06Sep2000                   
   SHA256 =  0fc7481fb0695f01bdc6462160264c5c84044ae9ec85a907d398b887a2bc3132 S/POTCAR              
   COPYR  = (c) Copyright 06Sep2000 Georg Kresse                                                    
   COPYR  = This file is part of the software VASP. Any use, copying, and all other rights are regul
   COPYR  = If you do not have a valid VASP license, you may not use, copy or distribute this file. 
   VRHFIN =S : s2p4                                                                                 
   LEXCH  = PE                                                                                      
   EATOM  =   276.8230 eV,   20.3459 Ry                                                             
                                                                                                    
   TITEL  = PAW_PBE S 06Sep2000                                                                     
   LULTRA =        F    use ultrasoft PP ?                                                          
   IUNSCR =        1    unscreen: 0-lin 1-nonlin 2-no                                               
   RPACOR =    1.500    partial core radius                                                         
   POMASS =   32.066; ZVAL   =    6.000    mass and valenz                                          
   RCORE  =    1.900    outmost cutoff radius                                                       
   RWIGS  =    2.200; RWIGS  =    1.164    wigner-seitz radius (au A)                               
   ENMAX  =  258.689; ENMIN  =  194.016 eV                                                          
   ICORE  =        2    local potential                                                             
   LCOR   =        T    correct aug charges                                                         
   LPAW   =        T    paw PP                                                                      
   EAUG   =  335.092                                                                                
   DEXC   =    0.000                                                                                
   RMAX   =    1.942    core radius for proj-oper                                                   
   RAUG   =    1.300    factor for augmentation sphere                                              
   RDEP   =    1.954    radius for radial grids                                                     
   RDEPT  =    1.744    core radius for aug-charge                                                  
                                                                                                    
   Atomic configuration                                                                             
    6 entries                                                                                       
     n  l   j            E        occ.                                                              
     1  0  0.50     -2405.8406   2.0000                                                             
     2  0  0.50      -211.7007   2.0000                                                             
     2  1  1.50      -156.4958   6.0000                                                             
     3  0  0.50       -17.2562   2.0000                                                             
     3  1  0.50        -7.0085   4.0000                                                             
     3  2  1.50        -6.8029   0.0000                                                             
   Description                                                                                      
     l       E           TYP  RCUT    TYP  RCUT                                                     
     0    -17.2561641     23  1.900                                                                 
     0    -15.8743224     23  1.900                                                                 
     1     -7.0085400     23  1.900                                                                 
     1     -2.7779785     23  1.900                                                                 
     2     -6.8029130     23  1.900                                                                 
  local pseudopotential read in
  partial core-charges read in
  partial kinetic energy density read in
  atomic valenz-charges read in
  non local Contribution for L=           0  read in
    real space projection operators read in
  non local Contribution for L=           0  read in
    real space projection operators read in
  non local Contribution for L=           1  read in
    real space projection operators read in
  non local Contribution for L=           1  read in
    real space projection operators read in
    PAW grid and wavefunctions read in
 
   number of l-projection  operators is LMAX  =           4
   number of lm-projection operators is LMMAX =           8
 
 -----------------------------------------------------------------------------
|                                                                             |
|               ----> ADVICE to this user running VASP <----                  |
|                                                                             |
|     You have a (more or less) 'large supercell' and for larger cells it     |
|     might be more efficient to use real-space projection operators.         |
|     Therefore, try LREAL= Auto in the INCAR file.                           |
|     Mind: For very accurate calculation, you might also keep the            |
|     reciprocal projection scheme (i.e. LREAL=.FALSE.).                      |
|                                                                             |
 -----------------------------------------------------------------------------

  PAW_PBE Zn 06Sep2000                  :
 energy of atom  1       EATOM=-1748.8345
 kinetic energy error for atom=    0.0029 (will be added to EATOM!!)
  PAW_PBE S 06Sep2000                   :
 energy of atom  2       EATOM= -276.8230
 kinetic energy error for atom=    0.0016 (will be added to EATOM!!)
 
 
 POSCAR: generated by phonopy
  positions in direct lattice
  No initial velocities read in
 exchange correlation table for  LEXCH =        8
   RHO(1)=    0.500       N(1)  =     2000
   RHO(2)=  100.500       N(2)  =     4000
 


--------------------------------------------------------------------------------------------------------


 ion  position               nearest neighbor table
   1  0.111  0.222  0.000-  64 2.33  67 2.33  66 2.33  37 2.34
   2  0.444  0.222  0.000-  65 2.33  64 2.33  68 2.33  38 2.34
   3  0.778  0.222  0.000-  66 2.33  65 2.33  69 2.33  39 2.34
   4  0.111  0.556  0.000-  67 2.33  70 2.33  69 2.33  40 2.34
   5  0.444  0.556  0.000-  67 2.33  71 2.33  68 2.33  41 2.34
   6  0.778  0.556  0.000-  69 2.33  68 2.33  72 2.33  42 2.34
   7  0.111  0.889  0.000-  70 2.33  64 2.33  72 2.33  43 2.34
   8  0.444  0.889  0.000-  71 2.33  70 2.33  65 2.33  44 2.34
   9  0.778  0.889  0.000-  72 2.33  71 2.33  66 2.33  45 2.34
  10  0.111  0.222  0.500-  55 2.33  58 2.33  57 2.33  46 2.34
  11  0.444  0.222  0.500-  56 2.33  55 2.33  59 2.33  47 2.34
  12  0.778  0.222  0.500-  57 2.33  56 2.33  60 2.33  48 2.34
  13  0.111  0.556  0.500-  58 2.33  61 2.33  60 2.33  49 2.34
  14  0.444  0.556  0.500-  58 2.33  62 2.33  59 2.33  50 2.34
  15  0.778  0.556  0.500-  60 2.33  59 2.33  63 2.33  51 2.34
  16  0.111  0.889  0.500-  61 2.33  55 2.33  63 2.33  52 2.34
  17  0.444  0.889  0.500-  62 2.33  61 2.33  56 2.33  53 2.34
  18  0.778  0.889  0.500-  63 2.33  62 2.33  57 2.33  54 2.34
  19  0.222  0.111  0.250-  37 2.33  38 2.33  43 2.33  55 2.34
  20  0.556  0.111  0.250-  38 2.33  39 2.33  44 2.33  56 2.34
  21  0.889  0.111  0.250-  39 2.33  37 2.33  45 2.33  57 2.34
  22  0.222  0.444  0.250-  40 2.33  37 2.33  41 2.33  58 2.34
  23  0.556  0.444  0.250-  38 2.33  42 2.33  41 2.33  59 2.34
  24  0.889  0.444  0.250-  42 2.33  39 2.33  40 2.33  60 2.34
  25  0.222  0.778  0.250-  43 2.33  40 2.33  44 2.33  61 2.34
  26  0.556  0.778  0.250-  44 2.33  41 2.33  45 2.33  62 2.34
  27  0.889  0.778  0.250-  45 2.33  42 2.33  43 2.33  63 2.34
  28  0.222  0.111  0.750-  46 2.33  47 2.33  52 2.33  64 2.34
  29  0.556  0.111  0.750-  47 2.33  48 2.33  53 2.33  65 2.34
  30  0.889  0.111  0.750-  48 2.33  46 2.33  54 2.33  66 2.34
  31  0.222  0.444  0.750-  49 2.33  46 2.33  50 2.33  67 2.34
  32  0.556  0.444  0.750-  47 2.33  51 2.33  50 2.33  68 2.34
  33  0.889  0.444  0.750-  51 2.33  48 2.33  49 2.33  69 2.34
  34  0.222  0.778  0.750-  52 2.33  49 2.33  53 2.33  70 2.34
  35  0.556  0.778  0.750-  53 2.33  50 2.33  54 2.33  71 2.34
  36  0.889  0.778  0.750-  54 2.33  51 2.33  52 2.33  72 2.34
  37  0.111  0.222  0.187-  19 2.33  22 2.33  21 2.33   1 2.34
  38  0.444  0.222  0.187-  20 2.33  19 2.33  23 2.33   2 2.34
  39  0.778  0.222  0.187-  21 2.33  20 2.33  24 2.33   3 2.34
  40  0.111  0.556  0.187-  22 2.33  25 2.33  24 2.33   4 2.34
  41  0.444  0.556  0.187-  22 2.33  26 2.33  23 2.33   5 2.34
  42  0.778  0.556  0.187-  24 2.33  23 2.33  27 2.33   6 2.34
  43  0.111  0.889  0.187-  25 2.33  19 2.33  27 2.33   7 2.34
  44  0.444  0.889  0.187-  26 2.33  25 2.33  20 2.33   8 2.34
  45  0.778  0.889  0.187-  27 2.33  26 2.33  21 2.33   9 2.34
  46  0.111  0.222  0.687-  28 2.33  31 2.33  30 2.33  10 2.34
  47  0.444  0.222  0.687-  29 2.33  28 2.33  32 2.33  11 2.34
  48  0.778  0.222  0.687-  30 2.33  29 2.33  33 2.33  12 2.34
  49  0.111  0.556  0.687-  31 2.33  34 2.33  33 2.33  13 2.34
  50  0.444  0.556  0.687-  31 2.33  35 2.33  32 2.33  14 2.34
  51  0.778  0.556  0.687-  33 2.33  32 2.33  36 2.33  15 2.34
  52  0.111  0.889  0.687-  34 2.33  28 2.33  36 2.33  16 2.34
  53  0.444  0.889  0.687-  35 2.33  34 2.33  29 2.33  17 2.34
  54  0.778  0.889  0.687-  36 2.33  35 2.33  30 2.33  18 2.34
  55  0.222  0.111  0.437-  10 2.33  11 2.33  16 2.33  19 2.34
  56  0.556  0.111  0.437-  11 2.33  12 2.33  17 2.33  20 2.34
  57  0.889  0.111  0.437-  12 2.33  10 2.33  18 2.33  21 2.34
  58  0.222  0.444  0.437-  13 2.33  10 2.33  14 2.33  22 2.34
  59  0.556  0.444  0.437-  11 2.33  15 2.33  14 2.33  23 2.34
  60  0.889  0.444  0.437-  15 2.33  12 2.33  13 2.33  24 2.34
  61  0.222  0.778  0.437-  16 2.33  13 2.33  17 2.33  25 2.34
  62  0.556  0.778  0.437-  17 2.33  14 2.33  18 2.33  26 2.34
  63  0.889  0.778  0.437-  18 2.33  15 2.33  16 2.33  27 2.34
  64  0.222  0.111  0.937-   1 2.33   2 2.33   7 2.33  28 2.34
  65  0.556  0.111  0.937-   2 2.33   3 2.33   8 2.33  29 2.34
  66  0.889  0.111  0.937-   3 2.33   1 2.33   9 2.33  30 2.34
  67  0.222  0.444  0.937-   4 2.33   1 2.33   5 2.33  31 2.34
  68  0.556  0.444  0.937-   2 2.33   6 2.33   5 2.33  32 2.34
  69  0.889  0.444  0.937-   6 2.33   3 2.33   4 2.33  33 2.34
  70  0.222  0.778  0.937-   7 2.33   4 2.33   8 2.33  34 2.34
  71  0.556  0.778  0.937-   8 2.33   5 2.33   9 2.33  35 2.34
  72  0.889  0.778  0.937-   9 2.33   6 2.33   7 2.33  36 2.34
 
  LATTYP: Found a hexagonal cell.
 ALAT       =    11.4173894013
 C/A-ratio  =     1.0927159284
  
  Lattice vectors:
  
 A1 = (   5.7086947006,  -9.8877492664,   0.0000000000)
 A2 = (   5.7086947006,   9.8877492664,   0.0000000000)
 A3 = (   0.0000000000,   0.0000000000,  12.4759632600)


Analysis of symmetry for initial positions (statically):
=====================================================================
 Subroutine PRICEL returns following result:
 
  LATTYP: Found a hexagonal cell.
 ALAT       =     3.8057964671
 C/A-ratio  =     1.6390738927
  
  Lattice vectors:
  
 A1 = (   1.9028982335,  -3.2959164221,   0.0000000000)
 A2 = (   1.9028982335,   3.2959164221,   0.0000000000)
 A3 = (   0.0000000000,   0.0000000000,   6.2379816300)
 
  18 primitive cells build up your supercell.
 

 Routine SETGRP: Setting up the symmetry group for a 
 hexagonal supercell.


 Subroutine GETGRP returns: Found 12 space group operations
 (whereof  6 operations were pure point group operations)
 out of a pool of 24 trial point group operations.


The static configuration has the point symmetry C_3v.
 The point group associated with its full space group is C_6v.


Analysis of symmetry for dynamics (positions and initial velocities):
=====================================================================
 Subroutine PRICEL returns following result:
 
  LATTYP: Found a hexagonal cell.
 ALAT       =     3.8057964671
 C/A-ratio  =     1.6390738927
  
  Lattice vectors:
  
 A1 = (   1.9028982335,  -3.2959164221,   0.0000000000)
 A2 = (   1.9028982335,   3.2959164221,   0.0000000000)
 A3 = (   0.0000000000,   0.0000000000,   6.2379816300)
 
  18 primitive cells build up your supercell.
 

 Routine SETGRP: Setting up the symmetry group for a 
 hexagonal supercell.


 Subroutine GETGRP returns: Found 12 space group operations
 (whereof  6 operations were pure point group operations)
 out of a pool of 24 trial point group operations.


The dynamic configuration has the point symmetry C_3v.
 The point group associated with its full space group is C_6v.


 Subroutine INISYM returns: Found 12 space group operations
 (whereof  6 operations are pure point group operations),
 and found    18 'primitive' translations


----------------------------------------------------------------------------------------

                                     Primitive cell                                     

  volume of cell :      78.2467

  direct lattice vectors                    reciprocal lattice vectors
     1.902898234 -3.295916422  0.000000000     0.262757089 -0.151702876  0.000000000
     1.902898234  3.295916422  0.000000000     0.262757089  0.151702876  0.000000000
     0.000000000  0.000000000  6.237981630     0.000000000  0.000000000  0.160308263

  length of vectors
     3.805796467  3.805796467  6.237981630     0.303405752  0.303405752  0.160308263

  position of ions in fractional coordinates (direct lattice)
     0.333333333  0.666666667  0.000311508
     0.666666667  0.333333333  0.500311508
     0.333333333  0.666666667  0.374688492
     0.666666667  0.333333333  0.874688492

  ion indices of the primitive-cell ions
   primitive index   ion index
                 1           1
                 2          19
                 3          37
                 4          64

----------------------------------------------------------------------------------------

 
 
 KPOINTS: Automatic kpoint scheme                 

Automatic generation of k-mesh.
 Grid dimensions read from file:
 generate k-points for:    2    2    2

 Generating k-lattice:

  Cartesian coordinates                     Fractional coordinates (reciprocal lattice)
     0.043792848 -0.025283813  0.000000000     0.500000000  0.000000000  0.000000000
     0.043792848  0.025283813  0.000000000     0.000000000  0.500000000  0.000000000
     0.000000000  0.000000000  0.040077066     0.000000000  0.000000000  0.500000000

  Length of vectors
     0.050567625  0.050567625  0.040077066

  Shift w.r.t. Gamma in fractional coordinates (k-lattice)
     0.000000000  0.000000000  0.000000000

 
 Subroutine IBZKPT returns following result:
 ===========================================
 
 Found      4 irreducible k-points:
 
 Following reciprocal coordinates:
            Coordinates               Weight
  0.000000  0.000000  0.000000      1.000000
  0.500000  0.000000  0.000000      3.000000
  0.000000  0.000000  0.500000      1.000000
  0.500000  0.000000  0.500000      3.000000
 
 Following cartesian coordinates:
            Coordinates               Weight
  0.000000  0.000000  0.000000      1.000000
  0.043793 -0.025284  0.000000      3.000000
  0.000000  0.000000  0.040077      1.000000
  0.043793 -0.025284  0.040077      3.000000
 


--------------------------------------------------------------------------------------------------------




 Dimension of arrays:
   k-points           NKPTS =      4   k-points in BZ     NKDIM =      4   number of bands    NBANDS=    448
   number of dos      NEDOS =    301   number of ions     NIONS =     72
   non local maximal  LDIM  =      6   non local SUM 2l+1 LMDIM =     18
   total plane-waves  NPLWV = 777600
   max r-space proj   IRMAX =      1   max aug-charges    IRDMAX=  17591
   dimension x,y,z NGX =    90 NGY =   90 NGZ =   96
   dimension x,y,z NGXF=   180 NGYF=  180 NGZF=  192
   support grid    NGXF=   180 NGYF=  180 NGZF=  192
   ions per type =              36  36
   NGX,Y,Z   is equivalent  to a cutoff of  13.10, 13.10, 12.79 a.u.
   NGXF,Y,Z  is equivalent  to a cutoff of  26.21, 26.21, 25.58 a.u.

 SYSTEM =  unknown system                          
 POSCAR =  generated by phonopy                    

 Startparameter for this run:
   NWRITE =      2    write-flag & timer
   PREC   = accura    normal or accurate (medium, high low for compatibility)
   ISTART =      0    job   : 0-new  1-cont  2-samecut
   ICHARG =      2    charge: 1-file 2-atom 10-const
   ISPIN  =      1    spin polarized calculation?
   LNONCOLLINEAR =      F non collinear calculations
   LSORBIT =      F    spin-orbit coupling
   INIWAV =      1    electr: 0-lowe 1-rand  2-diag
   LASPH  =      F    aspherical Exc in radial PAW
 Electronic Relaxation 1
   ENCUT  =  520.0 eV  38.22 Ry    6.18 a.u.  21.23 21.23 23.20*2*pi/ulx,y,z
   ENINI  =  520.0     initial cutoff
   ENAUG  =  575.9 eV  augmentation charge cutoff
   NELM   =    120;   NELMIN=  8; NELMDL= -5     # of ELM steps 
   EDIFF  = 0.1E-07   stopping-criterion for ELM
   LREAL  =      F    real-space projection
   NLSPLINE    = F    spline interpolate recip. space projectors
   LCOMPAT=      F    compatible to vasp.4.4
   GGA_COMPAT  = T    GGA compatible to vasp.4.4-vasp.4.6
   LMAXPAW     = -100 max onsite density
   LMAXMIX     =    2 max onsite mixed and CHGCAR
   VOSKOWN=      0    Vosko Wilk Nusair interpolation
   ROPT   =    0.00000   0.00000
 Ionic relaxation
   EDIFFG = 0.1E-06   stopping-criterion for IOM
   NSW    =      0    number of steps for IOM
   NBLOCK =      1;   KBLOCK =      1    inner block; outer block 
   IBRION =     -1    ionic relax: 0-MD 1-quasi-New 2-CG
   NFREE  =      0    steps in history (QN), initial steepest desc. (CG)
   ISIF   =      2    stress and relaxation
   IWAVPR =     10    prediction:  0-non 1-charg 2-wave 3-comb
   ISYM   =      2    0-nonsym 1-usesym 2-fastsym
   LCORR  =      T    Harris-Foulkes like correction to forces

   POTIM  = 0.5000    time-step for ionic-motion
   TEIN   =    0.0    initial temperature
   TEBEG  =    0.0;   TEEND  =   0.0 temperature during run
   SMASS  =  -3.00    Nose mass-parameter (am)
   estimated Nose-frequenzy (Omega)   =  0.10E-29 period in steps = 0.13E+47 mass=  -0.298E-26a.u.
   SCALEE = 1.0000    scale energy and forces
   NPACO  =    256;   APACO  = 10.0  distance and # of slots for P.C.
   PSTRESS=    0.0 pullay stress

  Mass of Ions in am
   POMASS =  65.39 32.07
  Ionic Valenz
   ZVAL   =  12.00  6.00
  Atomic Wigner-Seitz radii
   RWIGS  =  -1.00 -1.00
  virtual crystal weights 
   VCA    =   1.00  1.00
   NELECT =     648.0000    total number of electrons
   NUPDOWN=      -1.0000    fix difference up-down

 DOS related values:
   EMIN   =  10.00;   EMAX   =-10.00  energy-range for DOS
   EFERMI =   0.00
   ISMEAR =     0;   SIGMA  =   0.03  broadening in eV -4-tet -1-fermi 0-gaus

 Electronic relaxation 2 (details)
   IALGO  =     38    algorithm
   LDIAG  =      T    sub-space diagonalisation (order eigenvalues)
   LSUBROT=      F    optimize rotation matrix (better conditioning)
   TURBO    =      0    0=normal 1=particle mesh
   IRESTART =      0    0=no restart 2=restart with 2 vectors
   NREBOOT  =      0    no. of reboots
   NMIN     =      0    reboot dimension
   EREF     =   0.00    reference energy to select bands
   IMIX   =      4    mixing-type and parameters
     AMIX     =   0.40;   BMIX     =  1.00
     AMIX_MAG =   1.60;   BMIX_MAG =  1.00
     AMIN     =   0.10
     WC   =   100.;   INIMIX=   1;  MIXPRE=   1;  MAXMIX= -45

 Intra band minimization:
   WEIMIN = 0.0000     energy-eigenvalue tresh-hold
   EBREAK =  0.56E-11  absolut break condition
   DEPER  =   0.30     relativ break condition  

   TIME   =   0.40     timestep for ELM

  volume/ion in A,a.u.               =      19.56       132.01
  Fermi-wavevector in a.u.,A,eV,Ry     =   1.263825  2.388284 21.731966  1.597254
  Thomas-Fermi vector in A             =   2.397162
 
 Write flags
   LWAVE        =      T    write WAVECAR
   LDOWNSAMPLE  =      F    k-point downsampling of WAVECAR
   LCHARG       =      T    write CHGCAR
   LVTOT        =      F    write LOCPOT, total local potential
   LVHAR        =      F    write LOCPOT, Hartree potential only
   LELF         =      F    write electronic localiz. function (ELF)
   LORBIT       =      0    0 simple, 1 ext, 2 COOP (PROOUT), +10 PAW based schemes


 Dipole corrections
   LMONO  =      F    monopole corrections only (constant potential shift)
   LDIPOL =      F    correct potential (dipole corrections)
   IDIPOL =      0    1-x, 2-y, 3-z, 4-all directions 
   EPSILON=  1.0000000 bulk dielectric constant

 Exchange correlation treatment:
   GGA     =    PE    GGA type
   LEXCH   =     8    internal setting for exchange type
   LIBXC   =     F    Libxc                    
   VOSKOWN =     0    Vosko Wilk Nusair interpolation
   LHFCALC =     F    Hartree Fock is set to
   LHFONE  =     F    Hartree Fock one center treatment
   AEXX    =    0.0000 exact exchange contribution

 Linear response parameters
   LEPSILON=     F    determine dielectric tensor
   LRPA    =     F    only Hartree local field effects (RPA)
   LNABLA  =     F    use nabla operator in PAW spheres
   LVEL    =     F    velocity operator in full k-point grid
   CSHIFT  =0.1000    complex shift for real part using Kramers Kronig
   OMEGAMAX=  -1.0    maximum frequency
   DEG_THRESHOLD= 0.2000000E-02 threshold for treating states as degnerate
   RTIME   =   -0.100 relaxation time in fs
  (WPLASMAI=    0.000 imaginary part of plasma frequency in eV, 0.658/RTIME)
   DFIELD  = 0.0000000 0.0000000 0.0000000 field for delta impulse in time
 
  Optional k-point grid parameters
   LKPOINTS_OPT  =     F    use optional k-point grid
   KPOINTS_OPT_MODE=     1    mode for optional k-point grid
 
 Orbital magnetization related:
   ORBITALMAG=     F  switch on orbital magnetization
   LCHIMAG   =     F  perturbation theory with respect to B field
   DQ        =  0.001000  dq finite difference perturbation B field
   LLRAUG    =     F  two centre corrections for induced B field



--------------------------------------------------------------------------------------------------------


 Static calculation
 charge density and potential will be updated during run
 non-spin polarized calculation
 Variant of blocked Davidson
 Davidson routine will perform the subspace rotation
 perform sub-space diagonalisation
    after iterative eigenvector-optimisation
 modified Broyden-mixing scheme, WC =      100.0
 initial mixing is a Kerker type mixing with AMIX =  0.4000 and BMIX =      1.0000
 Hartree-type preconditioning will be used
 using additional bands          124
 reciprocal scheme for non local part
 use partial core corrections
 calculate Harris-corrections to forces 
   (improved forces if not selfconsistent)
 use gradient corrections 
 use of overlap-Matrix (Vanderbilt PP)
 Gauss-broadening in eV      SIGMA  =   0.03


--------------------------------------------------------------------------------------------------------


  energy-cutoff  :      520.00
  volume of cell :     1408.44
      direct lattice vectors                 reciprocal lattice vectors
     5.708694701 -9.887749266  0.000000000     0.087585696 -0.050567625  0.000000000
     5.708694701  9.887749266  0.000000000     0.087585696  0.050567625  0.000000000
     0.000000000  0.000000000 12.475963260     0.000000000  0.000000000  0.080154132

  length of vectors
    11.417389401 11.417389401 12.475963260     0.101135251  0.101135251  0.080154132


 
 k-points in units of 2pi/SCALE and weight: Automatic kpoint scheme                 
   0.00000000  0.00000000  0.00000000       0.125
   0.04379285 -0.02528381  0.00000000       0.375
   0.00000000  0.00000000  0.04007707       0.125
   0.04379285 -0.02528381  0.04007707       0.375
 
 k-points in reciprocal lattice and weights: Automatic kpoint scheme                 
   0.00000000  0.00000000  0.00000000       0.125
   0.50000000  0.00000000  0.00000000       0.375
   0.00000000  0.00000000  0.50000000       0.125
   0.50000000  0.00000000  0.50000000       0.375
 
 position of ions in fractional coordinates (direct lattice) 
   0.11111111  0.22222222  0.00015575
   0.44444444  0.22222222  0.00015575
   0.77777778  0.22222222  0.00015575
   0.11111111  0.55555556  0.00015575
   0.44444444  0.55555556  0.00015575
   0.77777778  0.55555556  0.00015575
   0.11111111  0.88888889  0.00015575
   0.44444444  0.88888889  0.00015575
   0.77777778  0.88888889  0.00015575
   0.11111111  0.22222222  0.50015575
   0.44444444  0.22222222  0.50015575
   0.77777778  0.22222222  0.50015575
   0.11111111  0.55555556  0.50015575
   0.44444444  0.55555556  0.50015575
   0.77777778  0.55555556  0.50015575
   0.11111111  0.88888889  0.50015575
   0.44444444  0.88888889  0.50015575
   0.77777778  0.88888889  0.50015575
   0.22222222  0.11111111  0.25015575
   0.55555556  0.11111111  0.25015575
   0.88888889  0.11111111  0.25015575
   0.22222222  0.44444444  0.25015575
   0.55555556  0.44444444  0.25015575
   0.88888889  0.44444444  0.25015575
   0.22222222  0.77777778  0.25015575
   0.55555556  0.77777778  0.25015575
   0.88888889  0.77777778  0.25015575
   0.22222222  0.11111111  0.75015575
   0.55555556  0.11111111  0.75015575
   0.88888889  0.11111111  0.75015575
   0.22222222  0.44444444  0.75015575
   0.55555556  0.44444444  0.75015575
   0.88888889  0.44444444  0.75015575
   0.22222222  0.77777778  0.75015575
   0.55555556  0.77777778  0.75015575
   0.88888889  0.77777778  0.75015575
   0.11111111  0.22222222  0.18734425
   0.44444444  0.22222222  0.18734425
   0.77777778  0.22222222  0.18734425
   0.11111111  0.55555556  0.18734425
   0.44444444  0.55555556  0.18734425
   0.77777778  0.55555556  0.18734425
   0.11111111  0.88888889  0.18734425
   0.44444444  0.88888889  0.18734425
   0.77777778  0.88888889  0.18734425
   0.11111111  0.22222222  0.68734425
   0.44444444  0.22222222  0.68734425
   0.77777778  0.22222222  0.68734425
   0.11111111  0.55555556  0.68734425
   0.44444444  0.55555556  0.68734425
   0.77777778  0.55555556  0.68734425
   0.11111111  0.88888889  0.68734425
   0.44444444  0.88888889  0.68734425
   0.77777778  0.88888889  0.68734425
   0.22222222  0.11111111  0.43734425
   0.55555556  0.11111111  0.43734425
   0.88888889  0.11111111  0.43734425
   0.22222222  0.44444444  0.43734425
   0.55555556  0.44444444  0.43734425
   0.88888889  0.44444444  0.43734425
   0.22222222  0.77777778  0.43734425
   0.55555556  0.77777778  0.43734425
   0.88888889  0.77777778  0.43734425
   0.22222222  0.11111111  0.93734425
   0.55555556  0.11111111  0.93734425
   0.88888889  0.11111111  0.93734425
   0.22222222  0.44444444  0.93734425
   0.55555556  0.44444444  0.93734425
   0.88888889  0.44444444  0.93734425
   0.22222222  0.77777778  0.93734425
   0.55555556  0.77777778  0.93734425
   0.88888889  0.77777778  0.93734425
 
 position of ions in cartesian coordinates  (Angst):
   1.90289823  1.09863881  0.00194318
   3.80579647 -2.19727761  0.00194318
   5.70869470 -5.49319404  0.00194318
   3.80579647  4.39455523  0.00194318
   5.70869470  1.09863881  0.00194318
   7.61159293 -2.19727761  0.00194318
   5.70869470  7.69047165  0.00194318
   7.61159293  4.39455523  0.00194318
   9.51449117  1.09863881  0.00194318
   1.90289823  1.09863881  6.23992481
   3.80579647 -2.19727761  6.23992481
   5.70869470 -5.49319404  6.23992481
   3.80579647  4.39455523  6.23992481
   5.70869470  1.09863881  6.23992481
   7.61159293 -2.19727761  6.23992481
   5.70869470  7.69047165  6.23992481
   7.61159293  4.39455523  6.23992481
   9.51449117  1.09863881  6.23992481
   1.90289823 -1.09863881  3.12093399
   3.80579647 -4.39455523  3.12093399
   5.70869470 -7.69047165  3.12093399
   3.80579647  2.19727761  3.12093399
   5.70869470 -1.09863881  3.12093399
   7.61159293 -4.39455523  3.12093399
   5.70869470  5.49319404  3.12093399
   7.61159293  2.19727761  3.12093399
   9.51449117 -1.09863881  3.12093399
   1.90289823 -1.09863881  9.35891562
   3.80579647 -4.39455523  9.35891562
   5.70869470 -7.69047165  9.35891562
   3.80579647  2.19727761  9.35891562
   5.70869470 -1.09863881  9.35891562
   7.61159293 -4.39455523  9.35891562
   5.70869470  5.49319404  9.35891562
   7.61159293  2.19727761  9.35891562
   9.51449117 -1.09863881  9.35891562
   1.90289823  1.09863881  2.33729993
   3.80579647 -2.19727761  2.33729993
   5.70869470 -5.49319404  2.33729993
   3.80579647  4.39455523  2.33729993
   5.70869470  1.09863881  2.33729993
   7.61159293 -2.19727761  2.33729993
   5.70869470  7.69047165  2.33729993
   7.61159293  4.39455523  2.33729993
   9.51449117  1.09863881  2.33729993
   1.90289823  1.09863881  8.57528156
   3.80579647 -2.19727761  8.57528156
   5.70869470 -5.49319404  8.57528156
   3.80579647  4.39455523  8.57528156
   5.70869470  1.09863881  8.57528156
   7.61159293 -2.19727761  8.57528156
   5.70869470  7.69047165  8.57528156
   7.61159293  4.39455523  8.57528156
   9.51449117  1.09863881  8.57528156
   1.90289823 -1.09863881  5.45629075
   3.80579647 -4.39455523  5.45629075
   5.70869470 -7.69047165  5.45629075
   3.80579647  2.19727761  5.45629075
   5.70869470 -1.09863881  5.45629075
   7.61159293 -4.39455523  5.45629075
   5.70869470  5.49319404  5.45629075
   7.61159293  2.19727761  5.45629075
   9.51449117 -1.09863881  5.45629075
   1.90289823 -1.09863881 11.69427238
   3.80579647 -4.39455523 11.69427238
   5.70869470 -7.69047165 11.69427238
   3.80579647  2.19727761 11.69427238
   5.70869470 -1.09863881 11.69427238
   7.61159293 -4.39455523 11.69427238
   5.70869470  5.49319404 11.69427238
   7.61159293  2.19727761 11.69427238
   9.51449117 -1.09863881 11.69427238
 


--------------------------------------------------------------------------------------------------------


 k-point   1 :   0.0000 0.0000 0.0000  plane waves:   37991
 k-point   2 :   0.5000 0.0000 0.0000  plane waves:   37930
 k-point   3 :   0.0000 0.0000 0.5000  plane waves:   37858
 k-point   4 :   0.5000 0.0000 0.5000  plane waves:   37936

 maximum and minimum number of plane-waves per node :     37991    37858

 maximum number of plane-waves:     37991
 maximum index in each direction: 
   IXMAX=   21   IYMAX=   21   IZMAX=   23
   IXMIN=  -21   IYMIN=  -21   IZMIN=  -23


 serial   3D FFT for wavefunctions
 parallel 3D FFT for charge:
    minimum data exchange during FFTs selected (reduces bandwidth)


 total amount of memory used by VASP MPI-rank0   179929. kBytes
=======================================================================

   base      :      30000. kBytes
   nonl-proj :      87588. kBytes
   fftplans  :       6679. kBytes
   grid      :      37082. kBytes
   one-center:       1119. kBytes
   wavefun   :      17461. kBytes
 
     INWAV:  cpu time      0.0000: real time      0.0000
 Broyden mixing: mesh for mixing (old mesh)
   NGX = 43   NGY = 43   NGZ = 47
  (NGX  =180   NGY  =180   NGZ  =192)
  gives a total of  86903 points

 initial charge density was supplied:
 charge density of overlapping atoms calculated
 number of electron     648.0000000 magnetization 
 keeping initial charge density in first step


--------------------------------------------------------------------------------------------------------


 Maximum index for augmentation-charges          383 (set IRDMAX)


--------------------------------------------------------------------------------------------------------


 First call to EWALD:  gamma=   0.158
 Maximum number of real-space cells 3x 3x 3
 Maximum number of reciprocal cells 3x 3x 3

    FEWALD:  cpu time      0.0025: real time      0.0025


--------------------------------------- Iteration      1(   1)  ---------------------------------------


    POTLOK:  cpu time      1.4654: real time      1.6743
    SETDIJ:  cpu time      0.0105: real time      0.0151
     EDDAV:  cpu time     15.1984: real time     22.1037
       DOS:  cpu time      0.0024: real time      0.0053
    --------------------------------------------
      LOOP:  cpu time     16.6767: real time     23.7985

 eigenvalue-minimisations  :  3584
 total energy-change (2. order) : 0.5549885E+04  (-0.2878240E+05)
 number of electron     648.0000000 magnetization 
 augmentation part      648.0000000 magnetization 

 Free energy of the ion-electron system (eV)
  ---------------------------------------------------
  alpha Z        PSCENC =      2601.31004089
  Ewald energy   TEWEN  =    -45195.49766457
  -Hartree energ DENC   =    -24838.35200012
  -exchange      EXHF   =         0.00000000
  -V(xc)+E(xc)   XCENC  =      2498.13812235
  PAW double counting   =     60217.67821884   -66495.17109970
  entropy T*S    EENTRO =        -0.00622655
  eigenvalues    EBANDS =      3838.27731396
  atomic energy  EATOM  =     72923.50836470
  Solvation  Ediel_sol  =         0.00000000
  ---------------------------------------------------
  free energy    TOTEN  =      5549.88506980 eV

  energy without entropy =     5549.89129635  energy(sigma->0) =     5549.88818308


--------------------------------------------------------------------------------------------------------




--------------------------------------- Iteration      1(   2)  ---------------------------------------


     EDDAV:  cpu time     12.9086: real time     14.0244
       DOS:  cpu time      0.0006: real time      0.0006
    --------------------------------------------
      LOOP:  cpu time     12.9091: real time     14.0249

 eigenvalue-minimisations  :  3584
 total energy-change (2. order) :-0.4996957E+04  (-0.4673036E+04)
 number of electron     648.0000000 magnetization 
 augmentation part      648.0000000 magnetization 

 Free energy of the ion-electron system (eV)
  ---------------------------------------------------
  alpha Z        PSCENC =      2601.31004089
  Ewald energy   TEWEN  =    -45195.49766457
  -Hartree energ DENC   =    -24838.35200012
  -exchange      EXHF   =         0.00000000
  -V(xc)+E(xc)   XCENC  =      2498.13812235
  PAW double counting   =     60217.67821884   -66495.17109970
  entropy T*S    EENTRO =        -0.00000000
  eigenvalues    EBANDS =     -1158.68602969
  atomic energy  EATOM  =     72923.50836470
  Solvation  Ediel_sol  =         0.00000000
  ---------------------------------------------------
  free energy    TOTEN  =       552.92795271 eV

  energy without entropy =      552.92795271  energy(sigma->0) =      552.92795271


--------------------------------------------------------------------------------------------------------




--------------------------------------- Iteration      1(   3)  ---------------------------------------


     EDDAV:  cpu time     14.4870: real time     19.6357
       DOS:  cpu time      0.0005: real time      0.0005
    --------------------------------------------
      LOOP:  cpu time     14.4876: real time     19.6363

 eigenvalue-minimisations  :  3904
 total energy-change (2. order) :-0.7735937E+03  (-0.7565216E+03)
 number of electron     648.0000000 magnetization 
 augmentation part      648.0000000 magnetization 

 Free energy of the ion-electron system (eV)
  ---------------------------------------------------
  alpha Z        PSCENC =      2601.31004089
  Ewald energy   TEWEN  =    -45195.49766457
  -Hartree energ DENC   =    -24838.35200012
  -exchange      EXHF   =         0.00000000
  -V(xc)+E(xc)   XCENC  =      2498.13812235
  PAW double counting   =     60217.67821884   -66495.17109970
  entropy T*S    EENTRO =        -0.00000000
  eigenvalues    EBANDS =     -1932.27972689
  atomic energy  EATOM  =     72923.50836470
  Solvation  Ediel_sol  =         0.00000000
  ---------------------------------------------------
  free energy    TOTEN  =      -220.66574450 eV

  energy without entropy =     -220.66574450  energy(sigma->0) =     -220.66574450


--------------------------------------------------------------------------------------------------------




--------------------------------------- Iteration      1(   4)  ---------------------------------------


     EDDAV:  cpu time     15.2380: real time     15.2391
       DOS:  cpu time      0.0006: real time      0.0005
    --------------------------------------------
      LOOP:  cpu time     15.2386: real time     15.2396

 eigenvalue-minimisations  :  4352
 total energy-change (2. order) :-0.4014339E+02  (-0.3988636E+02)
 number of electron     648.0000000 magnetization 
 augmentation part      648.0000000 magnetization 

 Free energy of the ion-electron system (eV)
  ---------------------------------------------------
  alpha Z        PSCENC =      2601.31004089
  Ewald energy   TEWEN  =    -45195.49766457
  -Hartree energ DENC   =    -24838.35200012
  -exchange      EXHF   =         0.00000000
  -V(xc)+E(xc)   XCENC  =      2498.13812235
  PAW double counting   =     60217.67821884   -66495.17109970
  entropy T*S    EENTRO =        -0.00000000
  eigenvalues    EBANDS =     -1972.42311288
  atomic energy  EATOM  =     72923.50836470
  Solvation  Ediel_sol  =         0.00000000
  ---------------------------------------------------
  free energy    TOTEN  =      -260.80913049 eV

  energy without entropy =     -260.80913049  energy(sigma->0) =     -260.80913049


--------------------------------------------------------------------------------------------------------




--------------------------------------- Iteration      1(   5)  ---------------------------------------


     EDDAV:  cpu time     13.3178: real time     13.3261
       DOS:  cpu time      0.0006: real time      0.0006
    CHARGE:  cpu time      0.7108: real time      0.7579
    MIXING:  cpu time      0.0024: real time      0.0043
    --------------------------------------------
      LOOP:  cpu time     14.0315: real time     14.0888

 eigenvalue-minimisations  :  4160
 total energy-change (2. order) :-0.6746244E+00  (-0.6743249E+00)
 number of electron     647.9999978 magnetization 
 augmentation part      256.3958000 magnetization 

 Broyden mixing:
  rms(total) = 0.42220E+01    rms(broyden)= 0.42220E+01
  rms(prec ) = 0.45056E+01
  weight for this iteration     100.00

 Free energy of the ion-electron system (eV)
  ---------------------------------------------------
  alpha Z        PSCENC =      2601.31004089
  Ewald energy   TEWEN  =    -45195.49766457
  -Hartree energ DENC   =    -24838.35200012
  -exchange      EXHF   =         0.00000000
  -V(xc)+E(xc)   XCENC  =      2498.13812235
  PAW double counting   =     60217.67821884   -66495.17109970
  entropy T*S    EENTRO =        -0.00000000
  eigenvalues    EBANDS =     -1973.09773725
  atomic energy  EATOM  =     72923.50836470
  Solvation  Ediel_sol  =         0.00000000
  ---------------------------------------------------
  free energy    TOTEN  =      -261.48375486 eV

  energy without entropy =     -261.48375486  energy(sigma->0) =     -261.48375486


--------------------------------------------------------------------------------------------------------




--------------------------------------- Iteration      1(   6)  ---------------------------------------


    POTLOK:  cpu time      0.0636: real time      0.0636
    SETDIJ:  cpu time      0.0071: real time      0.0071
     EDDAV:  cpu time     17.1314: real time     17.7165
       DOS:  cpu time      0.0006: real time      0.0006
    CHARGE:  cpu time      0.7044: real time      0.7044
    MIXING:  cpu time      0.0024: real time      0.0097
    --------------------------------------------
      LOOP:  cpu time     17.9095: real time     18.5019

 eigenvalue-minimisations  :  5440
 total energy-change (2. order) : 0.1551948E+02  (-0.2846802E+01)
 number of electron     647.9999976 magnetization 
 augmentation part      260.2471084 magnetization 

 Broyden mixing:
  rms(total) = 0.32374E+01    rms(broyden)= 0.32374E+01
  rms(prec ) = 0.32920E+01
  weight for this iteration     100.00

 eigenvalues of (default mixing * dielectric matrix)
  average eigenvalue GAMMA=   2.2826
  2.2826

 Free energy of the ion-electron system (eV)
  ---------------------------------------------------
  alpha Z        PSCENC =      2601.31004089
  Ewald energy   TEWEN  =    -45195.49766457
  -Hartree energ DENC   =    -24600.18017622
  -exchange      EXHF   =         0.00000000
  -V(xc)+E(xc)   XCENC  =      2497.58972542
  PAW double counting   =     65199.19836448   -71391.65121062
  entropy T*S    EENTRO =        -0.00000000
  eigenvalues    EBANDS =     -2280.24172168
  atomic energy  EATOM  =     72923.50836470
  Solvation  Ediel_sol  =         0.00000000
  ---------------------------------------------------
  free energy    TOTEN  =      -245.96427760 eV

  energy without entropy =     -245.96427760  energy(sigma->0) =     -245.96427760


--------------------------------------------------------------------------------------------------------




--------------------------------------- Iteration      1(   7)  ---------------------------------------


    POTLOK:  cpu time      0.0671: real time      0.0671
    SETDIJ:  cpu time      0.0071: real time      0.0071
     EDDAV:  cpu time     13.1171: real time     13.1182
       DOS:  cpu time      0.0006: real time      0.0006
    CHARGE:  cpu time      0.7042: real time      0.7043
    MIXING:  cpu time      0.0018: real time      0.0025
    --------------------------------------------
      LOOP:  cpu time     13.8979: real time     13.8998

 eigenvalue-minimisations  :  4096
 total energy-change (2. order) :-0.5354207E+00  (-0.3243550E+01)
 number of electron     647.9999975 magnetization 
 augmentation part      260.1520070 magnetization 

 Broyden mixing:
  rms(total) = 0.11879E+01    rms(broyden)= 0.11879E+01
  rms(prec ) = 0.12278E+01
  weight for this iteration     100.00

 eigenvalues of (default mixing * dielectric matrix)
  average eigenvalue GAMMA=   1.7403
  0.9468  2.5337

 Free energy of the ion-electron system (eV)
  ---------------------------------------------------
  alpha Z        PSCENC =      2601.31004089
  Ewald energy   TEWEN  =    -45195.49766457
  -Hartree energ DENC   =    -24650.25143521
  -exchange      EXHF   =         0.00000000
  -V(xc)+E(xc)   XCENC  =      2508.05823112
  PAW double counting   =     74066.35502182   -80366.91168300
  entropy T*S    EENTRO =        -0.00000000
  eigenvalues    EBANDS =     -2133.07057401
  atomic energy  EATOM  =     72923.50836470
  Solvation  Ediel_sol  =         0.00000000
  ---------------------------------------------------
  free energy    TOTEN  =      -246.49969827 eV

  energy without entropy =     -246.49969827  energy(sigma->0) =     -246.49969827


--------------------------------------------------------------------------------------------------------




--------------------------------------- Iteration      1(   8)  ---------------------------------------


    POTLOK:  cpu time      0.0626: real time      0.0626
    SETDIJ:  cpu time      0.0071: real time      0.0071
     EDDAV:  cpu time     14.6851: real time     14.6861
       DOS:  cpu time      0.0006: real time      0.0006
    CHARGE:  cpu time      0.6997: real time      0.6997
    MIXING:  cpu time      0.0020: real time      0.0034
    --------------------------------------------
      LOOP:  cpu time     15.4570: real time     15.4594

 eigenvalue-minimisations  :  4672
 total energy-change (2. order) : 0.4620297E+00  (-0.1392390E+00)
 number of electron     647.9999976 magnetization 
 augmentation part      259.9005311 magnetization 

 Broyden mixing:
  rms(total) = 0.36618E+00    rms(broyden)= 0.36618E+00
  rms(prec ) = 0.38113E+00
  weight for this iteration     100.00

 eigenvalues of (default mixing * dielectric matrix)
  average eigenvalue GAMMA=   1.6301
  2.4893  1.2004  1.2004

 Free energy of the ion-electron system (eV)
  ---------------------------------------------------
  alpha Z        PSCENC =      2601.31004089
  Ewald energy   TEWEN  =    -45195.49766457
  -Hartree energ DENC   =    -24622.97019995
  -exchange      EXHF   =         0.00000000
  -V(xc)+E(xc)   XCENC  =      2506.13041954
  PAW double counting   =     77671.55179813   -83985.50835186
  entropy T*S    EENTRO =        -0.00000000
  eigenvalues    EBANDS =     -2144.56207549
  atomic energy  EATOM  =     72923.50836470
  Solvation  Ediel_sol  =         0.00000000
  ---------------------------------------------------
  free energy    TOTEN  =      -246.03766860 eV

  energy without entropy =     -246.03766860  energy(sigma->0) =     -246.03766860


--------------------------------------------------------------------------------------------------------




--------------------------------------- Iteration      1(   9)  ---------------------------------------


    POTLOK:  cpu time      0.0639: real time      0.0711
    SETDIJ:  cpu time      0.0071: real time      0.0070
     EDDAV:  cpu time     15.0496: real time     15.0513
       DOS:  cpu time      0.0006: real time      0.0006
    CHARGE:  cpu time      0.6978: real time      0.6979
    MIXING:  cpu time      0.0018: real time      0.0018
    --------------------------------------------
      LOOP:  cpu time     15.8207: real time     15.8296

 eigenvalue-minimisations  :  4800
 total energy-change (2. order) : 0.2325059E-01  (-0.5344829E-01)
 number of electron     647.9999976 magnetization 
 augmentation part      260.0782163 magnetization 

 Broyden mixing:
  rms(total) = 0.12101E+00    rms(broyden)= 0.12101E+00
  rms(prec ) = 0.12246E+00
  weight for this iteration     100.00

 eigenvalues of (default mixing * dielectric matrix)
  average eigenvalue GAMMA=   1.4203
  2.2739  1.0421  1.0421  1.3232

 Free energy of the ion-electron system (eV)
  ---------------------------------------------------
  alpha Z        PSCENC =      2601.31004089
  Ewald energy   TEWEN  =    -45195.49766457
  -Hartree energ DENC   =    -24595.25515643
  -exchange      EXHF   =         0.00000000
  -V(xc)+E(xc)   XCENC  =      2504.74839813
  PAW double counting   =     79109.27362448   -85413.87333135
  entropy T*S    EENTRO =        -0.00000000
  eigenvalues    EBANDS =     -2180.22869386
  atomic energy  EATOM  =     72923.50836470
  Solvation  Ediel_sol  =         0.00000000
  ---------------------------------------------------
  free energy    TOTEN  =      -246.01441801 eV

  energy without entropy =     -246.01441801  energy(sigma->0) =     -246.01441801


--------------------------------------------------------------------------------------------------------




--------------------------------------- Iteration      1(  10)  ---------------------------------------


    POTLOK:  cpu time      0.0624: real time      0.0624
    SETDIJ:  cpu time      0.0071: real time      0.0071
     EDDAV:  cpu time     13.9400: real time     13.9409
       DOS:  cpu time      0.0006: real time      0.0006
    CHARGE:  cpu time      0.7136: real time      0.7136
    MIXING:  cpu time      0.0017: real time      0.0017
    --------------------------------------------
      LOOP:  cpu time     14.7254: real time     14.7263

 eigenvalue-minimisations  :  4352
 total energy-change (2. order) :-0.1703655E-02  (-0.2355111E-02)
 number of electron     647.9999976 magnetization 
 augmentation part      260.0165189 magnetization 

 Broyden mixing:
  rms(total) = 0.56851E-01    rms(broyden)= 0.56851E-01
  rms(prec ) = 0.58616E-01
  weight for this iteration     100.00

 eigenvalues of (default mixing * dielectric matrix)
  average eigenvalue GAMMA=   1.7663
  2.7256  2.7256  1.3697  1.0054  1.0054

 Free energy of the ion-electron system (eV)
  ---------------------------------------------------
  alpha Z        PSCENC =      2601.31004089
  Ewald energy   TEWEN  =    -45195.49766457
  -Hartree energ DENC   =    -24602.78073034
  -exchange      EXHF   =         0.00000000
  -V(xc)+E(xc)   XCENC  =      2504.98619010
  PAW double counting   =     78653.67533208   -84959.58262424
  entropy T*S    EENTRO =        -0.00000000
  eigenvalues    EBANDS =     -2171.63503028
  atomic energy  EATOM  =     72923.50836470
  Solvation  Ediel_sol  =         0.00000000
  ---------------------------------------------------
  free energy    TOTEN  =      -246.01612167 eV

  energy without entropy =     -246.01612167  energy(sigma->0) =     -246.01612167


--------------------------------------------------------------------------------------------------------




--------------------------------------- Iteration      1(  11)  ---------------------------------------


    POTLOK:  cpu time      0.0622: real time      0.0622
    SETDIJ:  cpu time      0.0070: real time      0.0070
     EDDAV:  cpu time     13.6019: real time     13.7789
       DOS:  cpu time      0.0006: real time      0.0006
    CHARGE:  cpu time      0.7052: real time      0.7052
    MIXING:  cpu time      0.0020: real time      0.0020
    --------------------------------------------
      LOOP:  cpu time     14.3788: real time     14.5558

 eigenvalue-minimisations  :  4032
 total energy-change (2. order) :-0.4444766E-02  (-0.7445049E-03)
 number of electron     647.9999976 magnetization 
 augmentation part      260.0305797 magnetization 

 Broyden mixing:
  rms(total) = 0.48110E-01    rms(broyden)= 0.48110E-01
  rms(prec ) = 0.48478E-01
  weight for this iteration     100.00

 eigenvalues of (default mixing * dielectric matrix)
  average eigenvalue GAMMA=   1.5650
  2.7075  2.2975  1.2879  1.1042  1.1042  0.8888

 Free energy of the ion-electron system (eV)
  ---------------------------------------------------
  alpha Z        PSCENC =      2601.31004089
  Ewald energy   TEWEN  =    -45195.49766457
  -Hartree energ DENC   =    -24606.31543232
  -exchange      EXHF   =         0.00000000
  -V(xc)+E(xc)   XCENC  =      2505.23481736
  PAW double counting   =     78375.86346027   -84680.87789218
  entropy T*S    EENTRO =        -0.00000000
  eigenvalues    EBANDS =     -2169.24626058
  atomic energy  EATOM  =     72923.50836470
  Solvation  Ediel_sol  =         0.00000000
  ---------------------------------------------------
  free energy    TOTEN  =      -246.02056643 eV

  energy without entropy =     -246.02056643  energy(sigma->0) =     -246.02056643


--------------------------------------------------------------------------------------------------------




--------------------------------------- Iteration      1(  12)  ---------------------------------------


    POTLOK:  cpu time      0.0635: real time      0.0635
    SETDIJ:  cpu time      0.0072: real time      0.0072
     EDDAV:  cpu time     14.9581: real time     14.9592
       DOS:  cpu time      0.0005: real time      0.0005
    CHARGE:  cpu time      0.7082: real time      0.7082
    MIXING:  cpu time      0.0019: real time      0.0019
    --------------------------------------------
      LOOP:  cpu time     15.7394: real time     15.7405

 eigenvalue-minimisations  :  4736
 total energy-change (2. order) : 0.1427357E-03  (-0.1079945E-03)
 number of electron     647.9999976 magnetization 
 augmentation part      260.0210969 magnetization 

 Broyden mixing:
  rms(total) = 0.40809E-02    rms(broyden)= 0.40809E-02
  rms(prec ) = 0.43028E-02
  weight for this iteration     100.00

 eigenvalues of (default mixing * dielectric matrix)
  average eigenvalue GAMMA=   1.6161
  2.6471  2.2164  2.2164  1.1636  1.1636  0.9529  0.9529

 Free energy of the ion-electron system (eV)
  ---------------------------------------------------
  alpha Z        PSCENC =      2601.31004089
  Ewald energy   TEWEN  =    -45195.49766457
  -Hartree energ DENC   =    -24605.30649492
  -exchange      EXHF   =         0.00000000
  -V(xc)+E(xc)   XCENC  =      2505.18775135
  PAW double counting   =     78574.06009496   -84879.87855243
  entropy T*S    EENTRO =        -0.00000000
  eigenvalues    EBANDS =     -2169.40396369
  atomic energy  EATOM  =     72923.50836470
  Solvation  Ediel_sol  =         0.00000000
  ---------------------------------------------------
  free energy    TOTEN  =      -246.02042370 eV

  energy without entropy =     -246.02042370  energy(sigma->0) =     -246.02042370


--------------------------------------------------------------------------------------------------------




--------------------------------------- Iteration      1(  13)  ---------------------------------------


    POTLOK:  cpu time      0.0626: real time      0.0693
    SETDIJ:  cpu time      0.0070: real time      0.0070
     EDDAV:  cpu time     12.9539: real time     12.9562
       DOS:  cpu time      0.0006: real time      0.0006
    CHARGE:  cpu time      0.7134: real time      0.7134
    MIXING:  cpu time      0.0018: real time      0.0018
    --------------------------------------------
      LOOP:  cpu time     13.7394: real time     13.7484

 eigenvalue-minimisations  :  3968
 total energy-change (2. order) :-0.8959035E-04  (-0.2005392E-04)
 number of electron     647.9999976 magnetization 
 augmentation part      260.0239777 magnetization 

 Broyden mixing:
  rms(total) = 0.37252E-02    rms(broyden)= 0.37251E-02
  rms(prec ) = 0.38146E-02
  weight for this iteration     100.00

 eigenvalues of (default mixing * dielectric matrix)
  average eigenvalue GAMMA=   1.6810
  3.2802  2.4556  2.4556  1.2513  1.0632  1.0632  1.0269  0.8522

 Free energy of the ion-electron system (eV)
  ---------------------------------------------------
  alpha Z        PSCENC =      2601.31004089
  Ewald energy   TEWEN  =    -45195.49766457
  -Hartree energ DENC   =    -24605.45487291
  -exchange      EXHF   =         0.00000000
  -V(xc)+E(xc)   XCENC  =      2505.18803813
  PAW double counting   =     78560.78593054   -84866.44076567
  entropy T*S    EENTRO =        -0.00000000
  eigenvalues    EBANDS =     -2169.41958439
  atomic energy  EATOM  =     72923.50836470
  Solvation  Ediel_sol  =         0.00000000
  ---------------------------------------------------
  free energy    TOTEN  =      -246.02051329 eV

  energy without entropy =     -246.02051329  energy(sigma->0) =     -246.02051329


--------------------------------------------------------------------------------------------------------




--------------------------------------- Iteration      1(  14)  ---------------------------------------


    POTLOK:  cpu time      0.0625: real time      0.0625
    SETDIJ:  cpu time      0.0070: real time      0.0070
     EDDAV:  cpu time     13.1681: real time     13.1690
       DOS:  cpu time      0.0006: real time      0.0005
    CHARGE:  cpu time      0.7057: real time      0.7057
    MIXING:  cpu time      0.0020: real time      0.0020
    --------------------------------------------
      LOOP:  cpu time     13.9459: real time     13.9468

 eigenvalue-minimisations  :  4096
 total energy-change (2. order) :-0.1710909E-04  (-0.5677747E-05)
 number of electron     647.9999976 magnetization 
 augmentation part      260.0212634 magnetization 

 Broyden mixing:
  rms(total) = 0.41210E-03    rms(broyden)= 0.41208E-03
  rms(prec ) = 0.42808E-03
  weight for this iteration     100.00

 eigenvalues of (default mixing * dielectric matrix)
  average eigenvalue GAMMA=   1.6085
  3.2814  2.6925  2.3339  1.2455  1.0409  1.0409  0.9567  0.9422  0.9422

 Free energy of the ion-electron system (eV)
  ---------------------------------------------------
  alpha Z        PSCENC =      2601.31004089
  Ewald energy   TEWEN  =    -45195.49766457
  -Hartree energ DENC   =    -24605.90416681
  -exchange      EXHF   =         0.00000000
  -V(xc)+E(xc)   XCENC  =      2505.20407371
  PAW double counting   =     78543.53490920   -84849.27548707
  entropy T*S    EENTRO =        -0.00000000
  eigenvalues    EBANDS =     -2168.90060046
  atomic energy  EATOM  =     72923.50836470
  Solvation  Ediel_sol  =         0.00000000
  ---------------------------------------------------
  free energy    TOTEN  =      -246.02053040 eV

  energy without entropy =     -246.02053040  energy(sigma->0) =     -246.02053040


--------------------------------------------------------------------------------------------------------




--------------------------------------- Iteration      1(  15)  ---------------------------------------


    POTLOK:  cpu time      0.0614: real time      0.0614
    SETDIJ:  cpu time      0.0071: real time      0.0071
     EDDAV:  cpu time     14.5115: real time     14.5126
       DOS:  cpu time      0.0006: real time      0.0006
    CHARGE:  cpu time      0.7033: real time      0.7033
    MIXING:  cpu time      0.0019: real time      0.0019
    --------------------------------------------
      LOOP:  cpu time     15.2858: real time     15.2869

 eigenvalue-minimisations  :  4544
 total energy-change (2. order) :-0.6289483E-06  (-0.4591955E-06)
 number of electron     647.9999976 magnetization 
 augmentation part      260.0214485 magnetization 

 Broyden mixing:
  rms(total) = 0.38652E-03    rms(broyden)= 0.38652E-03
  rms(prec ) = 0.39326E-03
  weight for this iteration     100.00

 eigenvalues of (default mixing * dielectric matrix)
  average eigenvalue GAMMA=   1.6603
  3.5040  2.5008  2.5008  1.4927  1.4927  1.1734  1.1734  0.9892  0.9892  0.7870

 Free energy of the ion-electron system (eV)
  ---------------------------------------------------
  alpha Z        PSCENC =      2601.31004089
  Ewald energy   TEWEN  =    -45195.49766457
  -Hartree energ DENC   =    -24605.90362268
  -exchange      EXHF   =         0.00000000
  -V(xc)+E(xc)   XCENC  =      2505.20307123
  PAW double counting   =     78542.68998019   -84848.41923795
  entropy T*S    EENTRO =        -0.00000000
  eigenvalues    EBANDS =     -2168.91146283
  atomic energy  EATOM  =     72923.50836470
  Solvation  Ediel_sol  =         0.00000000
  ---------------------------------------------------
  free energy    TOTEN  =      -246.02053103 eV

  energy without entropy =     -246.02053103  energy(sigma->0) =     -246.02053103


--------------------------------------------------------------------------------------------------------




--------------------------------------- Iteration      1(  16)  ---------------------------------------


    POTLOK:  cpu time      0.0636: real time      0.0636
    SETDIJ:  cpu time      0.0071: real time      0.0071
     EDDAV:  cpu time     14.3510: real time     14.3722
       DOS:  cpu time      0.0006: real time      0.0006
    CHARGE:  cpu time      0.7083: real time      0.7083
    MIXING:  cpu time      0.0022: real time      0.0026
    --------------------------------------------
      LOOP:  cpu time     15.1327: real time     15.1544

 eigenvalue-minimisations  :  4032
 total energy-change (2. order) :-0.2734450E-06  (-0.2782728E-07)
 number of electron     647.9999976 magnetization 
 augmentation part      260.0213682 magnetization 

 Broyden mixing:
  rms(total) = 0.16394E-03    rms(broyden)= 0.16394E-03
  rms(prec ) = 0.17046E-03
  weight for this iteration     100.00

 eigenvalues of (default mixing * dielectric matrix)
  average eigenvalue GAMMA=   1.6336
  3.3288  2.6933  2.3462  2.1143  1.3998  1.0918  1.0918  0.8425  0.9938  0.9938
  1.0739

 Free energy of the ion-electron system (eV)
  ---------------------------------------------------
  alpha Z        PSCENC =      2601.31004089
  Ewald energy   TEWEN  =    -45195.49766457
  -Hartree energ DENC   =    -24605.89942096
  -exchange      EXHF   =         0.00000000
  -V(xc)+E(xc)   XCENC  =      2505.20308245
  PAW double counting   =     78544.16046435   -84849.89875478
  entropy T*S    EENTRO =        -0.00000000
  eigenvalues    EBANDS =     -2168.90664338
  atomic energy  EATOM  =     72923.50836470
  Solvation  Ediel_sol  =         0.00000000
  ---------------------------------------------------
  free energy    TOTEN  =      -246.02053130 eV

  energy without entropy =     -246.02053130  energy(sigma->0) =     -246.02053130


--------------------------------------------------------------------------------------------------------




--------------------------------------- Iteration      1(  17)  ---------------------------------------


    POTLOK:  cpu time      0.0619: real time      0.0619
    SETDIJ:  cpu time      0.0070: real time      0.0070
     EDDAV:  cpu time     14.5498: real time     14.5507
       DOS:  cpu time      0.0006: real time      0.0006
    CHARGE:  cpu time      0.7060: real time      0.7060
    MIXING:  cpu time      0.0022: real time      0.0022
    --------------------------------------------
      LOOP:  cpu time     15.3276: real time     15.3285

 eigenvalue-minimisations  :  4480
 total energy-change (2. order) :-0.3220048E-06  (-0.5816972E-08)
 number of electron     647.9999976 magnetization 
 augmentation part      260.0212105 magnetization 

 Broyden mixing:
  rms(total) = 0.56580E-04    rms(broyden)= 0.56579E-04
  rms(prec ) = 0.57805E-04
  weight for this iteration     100.00

 eigenvalues of (default mixing * dielectric matrix)
  average eigenvalue GAMMA=   1.6606
  3.3473  2.8996  2.4147  2.4147  1.3863  1.3863  1.2673  1.0596  1.0596  0.9355
  0.9355  0.8212

 Free energy of the ion-electron system (eV)
  ---------------------------------------------------
  alpha Z        PSCENC =      2601.31004089
  Ewald energy   TEWEN  =    -45195.49766457
  -Hartree energ DENC   =    -24605.91242327
  -exchange      EXHF   =         0.00000000
  -V(xc)+E(xc)   XCENC  =      2505.20346408
  PAW double counting   =     78543.65483201   -84849.39964799
  entropy T*S    EENTRO =        -0.00000000
  eigenvalues    EBANDS =     -2168.88749746
  atomic energy  EATOM  =     72923.50836470
  Solvation  Ediel_sol  =         0.00000000
  ---------------------------------------------------
  free energy    TOTEN  =      -246.02053162 eV

  energy without entropy =     -246.02053162  energy(sigma->0) =     -246.02053162


--------------------------------------------------------------------------------------------------------




--------------------------------------- Iteration      1(  18)  ---------------------------------------


    POTLOK:  cpu time      0.0633: real time      0.0707
    SETDIJ:  cpu time      0.0071: real time      0.0071
     EDDAV:  cpu time     11.3254: real time     11.3263
       DOS:  cpu time      0.0005: real time      0.0005
    CHARGE:  cpu time      0.7122: real time      0.7122
    MIXING:  cpu time      0.0021: real time      0.0021
    --------------------------------------------
      LOOP:  cpu time     12.1106: real time     12.1189

 eigenvalue-minimisations  :  3328
 total energy-change (2. order) :-0.1390436E-06  (-0.2301932E-08)
 number of electron     647.9999976 magnetization 
 augmentation part      260.0211696 magnetization 

 Broyden mixing:
  rms(total) = 0.32382E-04    rms(broyden)= 0.32382E-04
  rms(prec ) = 0.32944E-04
  weight for this iteration     100.00

 eigenvalues of (default mixing * dielectric matrix)
  average eigenvalue GAMMA=   1.6716
  3.2439  3.2439  2.4845  2.4845  1.6660  1.6660  1.2577  1.0538  1.0538  0.9606
  0.8217  0.8969  0.8969

 Free energy of the ion-electron system (eV)
  ---------------------------------------------------
  alpha Z        PSCENC =      2601.31004089
  Ewald energy   TEWEN  =    -45195.49766457
  -Hartree energ DENC   =    -24605.91619056
  -exchange      EXHF   =         0.00000000
  -V(xc)+E(xc)   XCENC  =      2505.20362287
  PAW double counting   =     78543.47476289   -84849.22115748
  entropy T*S    EENTRO =        -0.00000000
  eigenvalues    EBANDS =     -2168.88231051
  atomic energy  EATOM  =     72923.50836470
  Solvation  Ediel_sol  =         0.00000000
  ---------------------------------------------------
  free energy    TOTEN  =      -246.02053176 eV

  energy without entropy =     -246.02053176  energy(sigma->0) =     -246.02053176


--------------------------------------------------------------------------------------------------------




--------------------------------------- Iteration      1(  19)  ---------------------------------------


    POTLOK:  cpu time      0.0621: real time      0.0621
    SETDIJ:  cpu time      0.0072: real time      0.0072
     EDDAV:  cpu time      9.8588: real time      9.8595
       DOS:  cpu time      0.0006: real time      0.0006
    CHARGE:  cpu time      0.7024: real time      0.7024
    MIXING:  cpu time      0.0025: real time      0.0025
    --------------------------------------------
      LOOP:  cpu time     10.6335: real time     10.6343

 eigenvalue-minimisations  :  2688
 total energy-change (2. order) :-0.6664777E-07  (-0.2578093E-09)
 number of electron     647.9999976 magnetization 
 augmentation part      260.0212016 magnetization 

 Broyden mixing:
  rms(total) = 0.15074E-04    rms(broyden)= 0.15074E-04
  rms(prec ) = 0.15445E-04
  weight for this iteration     100.00

 eigenvalues of (default mixing * dielectric matrix)
  average eigenvalue GAMMA=   1.6457
  3.4275  2.8505  2.5444  2.1589  1.9492  1.4577  1.4577  1.4250  1.0668  1.0668
  0.9556  0.9556  0.9125  0.8118

 Free energy of the ion-electron system (eV)
  ---------------------------------------------------
  alpha Z        PSCENC =      2601.31004089
  Ewald energy   TEWEN  =    -45195.49766457
  -Hartree energ DENC   =    -24605.91342711
  -exchange      EXHF   =         0.00000000
  -V(xc)+E(xc)   XCENC  =      2505.20351393
  PAW double counting   =     78543.53563875   -84849.28217617
  entropy T*S    EENTRO =        -0.00000000
  eigenvalues    EBANDS =     -2168.88482225
  atomic energy  EATOM  =     72923.50836470
  Solvation  Ediel_sol  =         0.00000000
  ---------------------------------------------------
  free energy    TOTEN  =      -246.02053183 eV

  energy without entropy =     -246.02053183  energy(sigma->0) =     -246.02053183


--------------------------------------------------------------------------------------------------------




--------------------------------------- Iteration      1(  20)  ---------------------------------------


    POTLOK:  cpu time      0.0651: real time      0.0651
    SETDIJ:  cpu time      0.0072: real time      0.0072
     EDDAV:  cpu time      9.0298: real time      9.0305
       DOS:  cpu time      0.0005: real time      0.0005
    --------------------------------------------
      LOOP:  cpu time      9.1026: real time      9.1033

 eigenvalue-minimisations  :  2368
 total energy-change (2. order) : 0.1178705E-08  (-0.3490714E-10)
 number of electron     647.9999976 magnetization 
 augmentation part      260.0212016 magnetization 

 Free energy of the ion-electron system (eV)
  ---------------------------------------------------
  alpha Z        PSCENC =      2601.31004089
  Ewald energy   TEWEN  =    -45195.49766457
  -Hartree energ DENC   =    -24605.91474716
  -exchange      EXHF   =         0.00000000
  -V(xc)+E(xc)   XCENC  =      2505.20356136
  PAW double counting   =     78543.50546694   -84849.25271158
  entropy T*S    EENTRO =        -0.00000000
  eigenvalues    EBANDS =     -2168.88284240
  atomic energy  EATOM  =     72923.50836470
  Solvation  Ediel_sol  =         0.00000000
  ---------------------------------------------------
  free energy    TOTEN  =      -246.02053183 eV

  energy without entropy =     -246.02053183  energy(sigma->0) =     -246.02053183


--------------------------------------------------------------------------------------------------------




 average (electrostatic) potential at core
  the test charge radii are     0.9521  0.9698
  (the norm of the test charge is              1.0000)
       1 -36.1973       2 -36.1973       3 -36.1973       4 -36.1973       5 -36.1973
       6 -36.1973       7 -36.1973       8 -36.1973       9 -36.1973      10 -36.1973
      11 -36.1973      12 -36.1973      13 -36.1973      14 -36.1973      15 -36.1973
      16 -36.1973      17 -36.1973      18 -36.1973      19 -36.1973      20 -36.1973
      21 -36.1973      22 -36.1973      23 -36.1973      24 -36.1973      25 -36.1973
      26 -36.1973      27 -36.1973      28 -36.1973      29 -36.1973      30 -36.1973
      31 -36.1973      32 -36.1973      33 -36.1973      34 -36.1973      35 -36.1973
      36 -36.1973      37 -88.5090      38 -88.5090      39 -88.5090      40 -88.5090
      41 -88.5090      42 -88.5090      43 -88.5090      44 -88.5090      45 -88.5090
      46 -88.5090      47 -88.5090      48 -88.5090      49 -88.5090      50 -88.5090
      51 -88.5090      52 -88.5090      53 -88.5090      54 -88.5090      55 -88.5090
      56 -88.5090      57 -88.5090      58 -88.5090      59 -88.5090      60 -88.5090
      61 -88.5090      62 -88.5090      63 -88.5090      64 -88.5090      65 -88.5090
      66 -88.5090      67 -88.5090      68 -88.5090      69 -88.5090      70 -88.5090
      71 -88.5090      72 -88.5090
 
 
 
 E-fermi :   2.3695     XC(G=0):  -9.6631     alpha+bet : -8.1250

 Fermi energy:         2.3695371970

 k-point     1 :       0.0000    0.0000    0.0000
  band No.  band energies     occupation 
      1     -11.0195      2.00000
      2     -10.5870      2.00000
      3     -10.5870      2.00000
      4     -10.3922      2.00000
      5     -10.3922      2.00000
      6     -10.3922      2.00000
      7     -10.3922      2.00000
      8     -10.3922      2.00000
      9     -10.3922      2.00000
     10     -10.0997      2.00000
     11     -10.0997      2.00000
     12     -10.0997      2.00000
     13     -10.0997      2.00000
     14     -10.0997      2.00000
     15     -10.0997      2.00000
     16     -10.0997      2.00000
     17     -10.0997      2.00000
     18     -10.0997      2.00000
     19     -10.0997      2.00000
     20     -10.0997      2.00000
     21     -10.0997      2.00000
     22     -10.0714      2.00000
     23      -9.8394      2.00000
     24      -9.8394      2.00000
     25      -9.8394      2.00000
     26      -9.8394      2.00000
     27      -9.8233      2.00000
     28      -9.8233      2.00000
     29      -9.8233      2.00000
     30      -9.8233      2.00000
     31      -9.7934      2.00000
     32      -9.7934      2.00000
     33      -9.7934      2.00000
     34      -9.7934      2.00000
     35      -9.7934      2.00000
     36      -9.7934      2.00000
     37      -4.1739      2.00000
     38      -4.1732      2.00000
     39      -4.1732      2.00000
     40      -4.1732      2.00000
     41      -4.1732      2.00000
     42      -4.1732      2.00000
     43      -4.1732      2.00000
     44      -4.1732      2.00000
     45      -4.1732      2.00000
     46      -4.1732      2.00000
     47      -4.1732      2.00000
     48      -4.1732      2.00000
     49      -4.1732      2.00000
     50      -4.1654      2.00000
     51      -4.1654      2.00000
     52      -4.1654      2.00000
     53      -4.1654      2.00000
     54      -4.1654      2.00000
     55      -4.1654      2.00000
     56      -4.1593      2.00000
     57      -4.1593      2.00000
     58      -4.1508      2.00000
     59      -4.1508      2.00000
     60      -4.1424      2.00000
     61      -4.1424      2.00000
     62      -4.1255      2.00000
     63      -4.1255      2.00000
     64      -4.1255      2.00000
     65      -4.1255      2.00000
     66      -4.0759      2.00000
     67      -4.0759      2.00000
     68      -4.0759      2.00000
     69      -4.0759      2.00000
     70      -4.0759      2.00000
     71      -4.0759      2.00000
     72      -4.0759      2.00000
     73      -4.0759      2.00000
     74      -4.0715      2.00000
     75      -4.0715      2.00000
     76      -4.0715      2.00000
     77      -4.0715      2.00000
[...]
    FORHAR:  cpu time      0.0279: real time      0.0279
    MIXING:  cpu time      0.0018: real time      0.0018
    OFIELD:  cpu time      0.0000: real time      0.0000

  FORCE on cell =-STRESS in cart. coord.  units (eV):
  Direction    XX          YY          ZZ          XY          YZ          ZX
  --------------------------------------------------------------------------------------
  Alpha Z  2601.31004  2601.31004  2601.31004
  Ewald  -15247.73947-15247.73947-14700.27036     0.00000    -0.00000    -0.00000
  Hartree  8072.96861  8072.96861  8459.97680    -0.00000     0.00000    -0.00000
  E(xc)   -3370.41672 -3370.41654 -3369.67738    -0.00000     0.00000    -0.00000
  Local     215.07502   215.08045  -714.64559     0.00000    -0.00000     0.00000
  n-local  1437.06647  1444.80773  1439.53318     6.70426     0.00000     0.00000
  augment   838.95910   838.95580   840.03645    -0.00000    -0.00000     0.00000
  Kinetic  5462.96053  5478.47473  5466.56329    13.43582     0.00000    -0.00000
  Fock        0.00000     0.00000     0.00000     0.00000     0.00000     0.00000
  -------------------------------------------------------------------------------------
  Total      21.81246    21.81246    22.82644     0.00000     0.00000     0.00000
  in kB      24.81287    24.81287    25.96632     0.00000     0.00000     0.00000
  external pressure =       25.20 kB  Pullay stress =        0.00 kB


 VOLUME and BASIS-vectors are now :
 -----------------------------------------------------------------------------
  energy-cutoff  :      520.00
  volume of cell :     1408.44
      direct lattice vectors                 reciprocal lattice vectors
     5.708694701 -9.887749266  0.000000000     0.087585696 -0.050567625  0.000000000
     5.708694701  9.887749266  0.000000000     0.087585696  0.050567625  0.000000000
     0.000000000  0.000000000 12.475963260     0.000000000  0.000000000  0.080154132

  length of vectors
    11.417389401 11.417389401 12.475963260     0.101135251  0.101135251  0.080154132


 FORCES acting on ions
    electron-ion (+dipol)            ewald-force                    non-local-force                 convergence-correction
 -----------------------------------------------------------------------------------------------
   -.242E-07 -.171E-06 -.391E+01   -.815E-10 -.110E-10 0.385E+01   0.651E-17 0.287E-17 0.565E-01   0.438E-12 0.520E-10 -.161E-05
   -.243E-07 -.171E-06 -.391E+01   -.400E-10 -.377E-10 0.385E+01   0.439E-17 0.130E-17 0.565E-01   0.134E-11 0.517E-10 -.161E-05
   -.242E-07 -.171E-06 -.391E+01   -.690E-11 -.436E-10 0.385E+01   -.732E-18 0.287E-17 0.565E-01   0.941E-12 0.531E-10 -.161E-05
   -.242E-07 -.171E-06 -.391E+01   -.263E-10 0.169E-10 0.385E+01   0.236E-17 0.114E-17 0.565E-01   -.124E-12 0.532E-10 -.161E-05
   -.242E-07 -.171E-06 -.391E+01   0.141E-10 -.750E-11 0.385E+01   0.116E-16 -.152E-17 0.565E-01   0.804E-12 0.513E-10 -.161E-05
   -.242E-07 -.171E-06 -.391E+01   0.414E-10 -.200E-10 0.385E+01   0.198E-17 0.754E-17 0.565E-01   0.419E-12 0.517E-10 -.161E-05
   -.243E-07 -.171E-06 -.391E+01   0.568E-13 0.336E-10 0.385E+01   -.642E-17 0.293E-17 0.565E-01   -.975E-12 0.517E-10 -.161E-05
   -.243E-07 -.171E-06 -.391E+01   0.334E-10 0.488E-11 0.385E+01   -.694E-17 0.304E-17 0.565E-01   -.571E-13 0.523E-10 -.161E-05
   -.243E-07 -.171E-06 -.391E+01   0.663E-10 -.111E-11 0.385E+01   -.651E-17 0.217E-18 0.565E-01   -.448E-12 0.511E-10 -.161E-05
   -.242E-07 -.171E-06 -.391E+01   -.806E-10 -.105E-10 0.385E+01   0.165E-17 0.271E-17 0.565E-01   0.435E-12 0.520E-10 -.161E-05
   -.243E-07 -.171E-06 -.391E+01   -.400E-10 -.366E-10 0.385E+01   0.130E-17 0.477E-17 0.565E-01   0.146E-11 0.517E-10 -.161E-05
   -.242E-07 -.171E-06 -.391E+01   -.693E-11 -.425E-10 0.385E+01   0.119E-17 0.347E-17 0.565E-01   0.971E-12 0.531E-10 -.161E-05
   -.242E-07 -.171E-06 -.391E+01   -.253E-10 0.174E-10 0.385E+01   -.333E-17 -.737E-17 0.565E-01   -.206E-12 0.533E-10 -.161E-05
   -.243E-07 -.171E-06 -.391E+01   0.141E-10 -.640E-11 0.385E+01   0.179E-17 -.867E-18 0.565E-01   0.741E-12 0.511E-10 -.161E-05
   -.243E-07 -.171E-06 -.391E+01   0.414E-10 -.189E-10 0.385E+01   -.203E-17 0.358E-17 0.565E-01   0.337E-12 0.517E-10 -.161E-05
   -.243E-07 -.171E-06 -.391E+01   0.240E-13 0.336E-10 0.385E+01   0.203E-17 0.531E-17 0.565E-01   -.100E-11 0.517E-10 -.161E-05
   -.243E-07 -.171E-06 -.391E+01   0.324E-10 0.544E-11 0.385E+01   0.881E-17 0.466E-17 0.565E-01   -.118E-13 0.524E-10 -.161E-05
   -.243E-07 -.171E-06 -.391E+01   0.653E-10 -.528E-12 0.385E+01   0.819E-17 0.141E-17 0.565E-01   -.387E-12 0.510E-10 -.161E-05
   -.242E-07 0.171E-06 -.391E+01   -.793E-10 0.107E-10 0.385E+01   0.323E-17 0.488E-18 0.565E-01   0.828E-14 -.527E-10 -.161E-05
   -.242E-07 0.171E-06 -.391E+01   -.369E-10 -.186E-10 0.385E+01   0.271E-19 -.390E-17 0.565E-01   0.311E-12 -.514E-10 -.161E-05
   -.243E-07 0.171E-06 -.391E+01   -.862E-13 -.336E-10 0.385E+01   0.759E-18 -.732E-17 0.565E-01   -.323E-12 -.519E-10 -.161E-05
   -.243E-07 0.171E-06 -.391E+01   -.341E-10 0.356E-10 0.385E+01   -.163E-18 -.813E-18 0.565E-01   0.596E-12 -.514E-10 -.161E-05
   -.242E-07 0.171E-06 -.391E+01   0.139E-10 0.127E-10 0.385E+01   0.404E-17 -.824E-17 0.565E-01   0.892E-12 -.526E-10 -.161E-05
   -.243E-07 0.171E-06 -.391E+01   0.438E-10 -.656E-11 0.385E+01   0.287E-17 -.211E-17 0.565E-01   0.302E-12 -.508E-10 -.161E-05
   -.243E-07 0.171E-06 -.391E+01   -.699E-11 0.470E-10 0.385E+01   -.366E-17 -.455E-17 0.565E-01   -.103E-11 -.517E-10 -.161E-05
   -.242E-07 0.171E-06 -.391E+01   0.354E-10 0.178E-10 0.385E+01   -.312E-17 -.137E-16 0.565E-01   -.645E-12 -.527E-10 -.161E-05
   -.243E-07 0.171E-06 -.391E+01   0.639E-10 0.709E-12 0.385E+01   -.759E-17 -.358E-17 0.565E-01   -.126E-11 -.532E-10 -.161E-05
   -.242E-07 0.171E-06 -.391E+01   -.784E-10 0.102E-10 0.385E+01   0.111E-17 -.342E-17 0.565E-01   0.658E-13 -.526E-10 -.161E-05
   -.243E-07 0.171E-06 -.391E+01   -.360E-10 -.192E-10 0.385E+01   0.301E-17 0.298E-17 0.565E-01   0.474E-12 -.513E-10 -.161E-05
   -.243E-07 0.171E-06 -.391E+01   -.888E-13 -.336E-10 0.385E+01   0.336E-17 -.596E-17 0.565E-01   -.349E-12 -.519E-10 -.161E-05
   -.243E-07 0.171E-06 -.391E+01   -.341E-10 0.344E-10 0.385E+01   0.770E-17 -.835E-17 0.565E-01   0.459E-12 -.516E-10 -.161E-05
   -.243E-07 0.171E-06 -.391E+01   0.139E-10 0.116E-10 0.385E+01   0.111E-17 -.813E-17 0.565E-01   0.902E-12 -.528E-10 -.161E-05
   -.243E-07 0.171E-06 -.391E+01   0.428E-10 -.711E-11 0.385E+01   0.122E-17 -.705E-17 0.565E-01   0.782E-13 -.507E-10 -.161E-05
   -.243E-07 0.171E-06 -.391E+01   -.699E-11 0.459E-10 0.385E+01   0.656E-17 0.542E-18 0.565E-01   -.973E-12 -.516E-10 -.161E-05
   -.243E-07 0.171E-06 -.391E+01   0.354E-10 0.166E-10 0.385E+01   0.981E-17 0.651E-18 0.565E-01   -.482E-12 -.528E-10 -.161E-05
   -.243E-07 0.171E-06 -.391E+01   0.629E-10 0.128E-12 0.385E+01   0.786E-17 0.304E-17 0.565E-01   -.132E-11 -.532E-10 -.161E-05
   -.105E-06 -.321E-06 0.382E+01   -.235E-10 0.917E-12 -.385E+01   0.137E-16 0.163E-17 0.324E-01   0.240E-12 -.372E-11 0.192E-05
   -.105E-06 -.321E-06 0.382E+01   0.828E-11 -.143E-10 -.385E+01   0.846E-17 0.813E-17 0.324E-01   0.613E-12 -.388E-11 0.192E-05
   -.105E-06 -.321E-06 0.382E+01   -.172E-11 -.101E-10 -.385E+01   0.726E-17 -.108E-17 0.324E-01   0.346E-12 -.316E-11 0.192E-05
   -.105E-06 -.321E-06 0.382E+01   -.280E-10 0.214E-11 -.385E+01   0.178E-16 -.412E-17 0.324E-01   -.924E-13 -.329E-11 0.192E-05
   -.105E-06 -.321E-06 0.382E+01   0.350E-11 -.124E-10 -.385E+01   0.180E-16 -.217E-18 0.324E-01   0.221E-12 -.415E-11 0.192E-05
   -.105E-06 -.321E-06 0.382E+01   -.793E-11 -.984E-11 -.385E+01   0.694E-17 0.412E-17 0.324E-01   0.325E-13 -.390E-11 0.192E-05
   -.105E-06 -.321E-06 0.382E+01   0.391E-13 0.148E-10 -.385E+01   0.233E-16 -.618E-17 0.324E-01   -.591E-12 -.413E-11 0.192E-05
   -.105E-06 -.321E-06 0.382E+01   0.297E-10 -.866E-12 -.385E+01   0.302E-16 0.347E-17 0.324E-01   -.192E-12 -.372E-11 0.192E-05
   -.105E-06 -.321E-06 0.382E+01   0.197E-10 0.338E-11 -.385E+01   0.238E-16 0.770E-17 0.324E-01   -.406E-12 -.430E-11 0.192E-05
   -.105E-06 -.321E-06 0.382E+01   -.232E-10 0.105E-11 -.385E+01   -.369E-17 -.651E-17 0.324E-01   0.149E-12 -.378E-11 0.192E-05
   -.105E-06 -.321E-06 0.382E+01   0.827E-11 -.140E-10 -.385E+01   -.477E-17 -.976E-17 0.324E-01   0.627E-12 -.389E-11 0.192E-05
   -.105E-06 -.321E-06 0.382E+01   -.172E-11 -.978E-11 -.385E+01   -.190E-17 -.347E-17 0.324E-01   0.305E-12 -.316E-11 0.192E-05
   -.105E-06 -.321E-06 0.382E+01   -.277E-10 0.227E-11 -.385E+01   0.922E-18 0.694E-17 0.324E-01   -.162E-12 -.324E-11 0.192E-05
   -.105E-06 -.321E-06 0.382E+01   0.350E-11 -.121E-10 -.385E+01   0.482E-17 -.976E-18 0.324E-01   0.265E-12 -.425E-11 0.192E-05
   -.105E-06 -.321E-06 0.382E+01   -.793E-11 -.955E-11 -.385E+01   -.911E-17 -.542E-18 0.324E-01   0.304E-13 -.386E-11 0.192E-05
   -.105E-06 -.321E-06 0.382E+01   0.355E-13 0.148E-10 -.385E+01   0.781E-17 -.217E-17 0.324E-01   -.603E-12 -.401E-11 0.192E-05
   -.105E-06 -.321E-06 0.382E+01   0.295E-10 -.756E-12 -.385E+01   0.170E-16 -.123E-16 0.324E-01   -.810E-13 -.370E-11 0.192E-05
   -.105E-06 -.321E-06 0.382E+01   0.195E-10 0.354E-11 -.385E+01   0.179E-17 -.401E-17 0.324E-01   -.359E-12 -.435E-11 0.192E-05
   -.105E-06 0.321E-06 0.382E+01   -.229E-10 -.996E-12 -.385E+01   0.220E-16 0.293E-17 0.324E-01   0.868E-13 0.350E-11 0.192E-05
   -.105E-06 0.321E-06 0.382E+01   -.306E-10 -.255E-11 -.385E+01   -.363E-17 0.249E-17 0.324E-01   0.234E-12 0.420E-11 0.192E-05
   -.105E-06 0.321E-06 0.382E+01   -.200E-13 -.148E-10 -.385E+01   0.115E-16 0.542E-17 0.324E-01   -.127E-12 0.398E-11 0.192E-05
   -.105E-06 0.321E-06 0.382E+01   0.973E-11 0.137E-10 -.385E+01   0.202E-16 -.325E-17 0.324E-01   0.289E-12 0.401E-11 0.192E-05
   -.105E-06 0.321E-06 0.382E+01   0.347E-11 0.136E-10 -.385E+01   0.178E-16 -.112E-16 0.324E-01   0.467E-12 0.348E-11 0.192E-05
   -.105E-06 0.321E-06 0.382E+01   0.323E-10 0.435E-12 -.385E+01   0.142E-16 0.108E-18 0.324E-01   0.136E-12 0.453E-11 0.192E-05
   -.105E-06 0.321E-06 0.382E+01   -.176E-11 0.109E-10 -.385E+01   -.802E-17 -.976E-18 0.324E-01   -.478E-12 0.396E-11 0.192E-05
   -.105E-06 0.321E-06 0.382E+01   -.944E-11 0.927E-11 -.385E+01   0.688E-17 -.932E-17 0.324E-01   -.269E-12 0.343E-11 0.192E-05
   -.105E-06 0.321E-06 0.382E+01   0.191E-10 -.353E-11 -.385E+01   0.466E-17 -.531E-17 0.324E-01   -.668E-12 0.330E-11 0.192E-05
   -.105E-06 0.321E-06 0.382E+01   -.227E-10 -.114E-11 -.385E+01   0.699E-17 0.239E-17 0.324E-01   0.588E-13 0.351E-11 0.192E-05
   -.105E-06 0.321E-06 0.382E+01   -.304E-10 -.270E-11 -.385E+01   0.678E-17 -.802E-17 0.324E-01   0.228E-12 0.414E-11 0.192E-05
   -.105E-06 0.321E-06 0.382E+01   -.160E-13 -.149E-10 -.385E+01   0.428E-17 0.239E-17 0.324E-01   -.174E-12 0.397E-11 0.192E-05
   -.105E-06 0.321E-06 0.382E+01   0.971E-11 0.134E-10 -.385E+01   0.168E-16 0.130E-17 0.324E-01   0.273E-12 0.402E-11 0.192E-05
   -.105E-06 0.321E-06 0.382E+01   0.344E-11 0.133E-10 -.385E+01   0.145E-16 0.542E-18 0.324E-01   0.453E-12 0.350E-11 0.192E-05
   -.105E-06 0.321E-06 0.382E+01   0.321E-10 0.313E-12 -.385E+01   -.239E-17 0.748E-17 0.324E-01   0.114E-12 0.448E-11 0.192E-05
   -.105E-06 0.321E-06 0.382E+01   -.177E-11 0.106E-10 -.385E+01   -.732E-17 0.477E-17 0.324E-01   -.451E-12 0.395E-11 0.192E-05
   -.105E-06 0.321E-06 0.382E+01   -.945E-11 0.898E-11 -.385E+01   -.759E-17 0.249E-17 0.324E-01   -.207E-12 0.344E-11 0.192E-05
   -.105E-06 0.321E-06 0.382E+01   0.188E-10 -.365E-11 -.385E+01   0.965E-17 0.575E-17 0.324E-01   -.625E-12 0.338E-11 0.192E-05
 -----------------------------------------------------------------------------------------------
   -.467E-05 -.171E-09 -.319E+01   -.118E-13 0.419E-13 0.173E-12   0.354E-15 -.506E-16 0.320E+01   0.206E-11 -.862E-12 0.112E-04
 
 
 POSITION                                       TOTAL-FORCE (eV/Angst)
 -----------------------------------------------------------------------------------
      1.90290      1.09864      0.00194        -0.000000      0.000000      0.000087
      3.80580     -2.19728      0.00194        -0.000000      0.000000      0.000087
      5.70869     -5.49319      0.00194         0.000000      0.000000      0.000087
      3.80580      4.39456      0.00194         0.000000     -0.000000      0.000087
      5.70869      1.09864      0.00194         0.000000     -0.000000      0.000087
      7.61159     -2.19728      0.00194         0.000000      0.000000      0.000087
      5.70869      7.69047      0.00194         0.000000     -0.000000      0.000087
      7.61159      4.39456      0.00194        -0.000000     -0.000000      0.000087
      9.51449      1.09864      0.00194        -0.000000      0.000000      0.000087
      1.90290      1.09864      6.23992         0.000000      0.000000      0.000087
      3.80580     -2.19728      6.23992         0.000000      0.000000      0.000087
      5.70869     -5.49319      6.23992         0.000000      0.000000      0.000087
      3.80580      4.39456      6.23992         0.000000      0.000000      0.000087
      5.70869      1.09864      6.23992         0.000000      0.000000      0.000087
      7.61159     -2.19728      6.23992         0.000000      0.000000      0.000087
      5.70869      7.69047      6.23992         0.000000      0.000000      0.000087
      7.61159      4.39456      6.23992        -0.000000      0.000000      0.000087
      9.51449      1.09864      6.23992        -0.000000      0.000000      0.000087
      1.90290     -1.09864      3.12093        -0.000000     -0.000000      0.000087
      3.80580     -4.39456      3.12093        -0.000000     -0.000000      0.000087
      5.70869     -7.69047      3.12093        -0.000000     -0.000000      0.000087
      3.80580      2.19728      3.12093        -0.000000     -0.000000      0.000087
      5.70869     -1.09864      3.12093        -0.000000     -0.000000      0.000087
      7.61159     -4.39456      3.12093        -0.000000     -0.000000      0.000087
      5.70869      5.49319      3.12093        -0.000000     -0.000000      0.000087
      7.61159      2.19728      3.12093        -0.000000     -0.000000      0.000087
      9.51449     -1.09864      3.12093        -0.000000     -0.000000      0.000087
      1.90290     -1.09864      9.35892         0.000000     -0.000000      0.000087
      3.80580     -4.39456      9.35892         0.000000     -0.000000      0.000087
      5.70869     -7.69047      9.35892         0.000000     -0.000000      0.000087
      3.80580      2.19728      9.35892         0.000000     -0.000000      0.000087
      5.70869     -1.09864      9.35892         0.000000     -0.000000      0.000087
      7.61159     -4.39456      9.35892         0.000000     -0.000000      0.000087
      5.70869      5.49319      9.35892         0.000000     -0.000000      0.000087
      7.61159      2.19728      9.35892         0.000000     -0.000000      0.000087
      9.51449     -1.09864      9.35892         0.000000     -0.000000      0.000087
      1.90290      1.09864      2.33730         0.000000     -0.000000     -0.000087
      3.80580     -2.19728      2.33730        -0.000000     -0.000000     -0.000087
      5.70869     -5.49319      2.33730        -0.000000     -0.000000     -0.000087
      3.80580      4.39456      2.33730        -0.000000     -0.000000     -0.000087
      5.70869      1.09864      2.33730        -0.000000     -0.000000     -0.000087
      7.61159     -2.19728      2.33730        -0.000000     -0.000000     -0.000087
      5.70869      7.69047      2.33730         0.000000     -0.000000     -0.000087
      7.61159      4.39456      2.33730        -0.000000     -0.000000     -0.000087
      9.51449      1.09864      2.33730        -0.000000     -0.000000     -0.000087
      1.90290      1.09864      8.57528         0.000000     -0.000000     -0.000087
      3.80580     -2.19728      8.57528         0.000000     -0.000000     -0.000087
      5.70869     -5.49319      8.57528         0.000000     -0.000000     -0.000087
      3.80580      4.39456      8.57528         0.000000     -0.000000     -0.000087
      5.70869      1.09864      8.57528         0.000000     -0.000000     -0.000087
      7.61159     -2.19728      8.57528         0.000000     -0.000000     -0.000087
      5.70869      7.69047      8.57528        -0.000000     -0.000000     -0.000087
      7.61159      4.39456      8.57528        -0.000000     -0.000000     -0.000087
      9.51449      1.09864      8.57528         0.000000      0.000000     -0.000087
      1.90290     -1.09864      5.45629        -0.000000      0.000000     -0.000087
      3.80580     -4.39456      5.45629         0.000000      0.000000     -0.000087
      5.70869     -7.69047      5.45629         0.000000      0.000000     -0.000087
      3.80580      2.19728      5.45629        -0.000000      0.000000     -0.000087
      5.70869     -1.09864      5.45629        -0.000000      0.000000     -0.000087
      7.61159     -4.39456      5.45629        -0.000000      0.000000     -0.000087
      5.70869      5.49319      5.45629        -0.000000      0.000000     -0.000087
      7.61159      2.19728      5.45629         0.000000      0.000000     -0.000087
      9.51449     -1.09864      5.45629         0.000000      0.000000     -0.000087
      1.90290     -1.09864     11.69427         0.000000      0.000000     -0.000087
      3.80580     -4.39456     11.69427        -0.000000      0.000000     -0.000087
      5.70869     -7.69047     11.69427         0.000000      0.000000     -0.000087
      3.80580      2.19728     11.69427         0.000000      0.000000     -0.000087
      5.70869     -1.09864     11.69427         0.000000      0.000000     -0.000087
      7.61159     -4.39456     11.69427         0.000000      0.000000     -0.000087
      5.70869      5.49319     11.69427         0.000000      0.000000     -0.000087
      7.61159      2.19728     11.69427        -0.000000      0.000000     -0.000087
      9.51449     -1.09864     11.69427         0.000000      0.000000     -0.000087
 -----------------------------------------------------------------------------------
    total drift:                               -0.000005     -0.000000      0.010878


--------------------------------------------------------------------------------------------------------



  FREE ENERGIE OF THE ION-ELECTRON SYSTEM (eV)
  ---------------------------------------------------
  free  energy   TOTEN  =      -246.02053183 eV

  energy  without entropy=     -246.02053183  energy(sigma->0) =     -246.02053183
 


--------------------------------------------------------------------------------------------------------


    POTLOK:  cpu time      0.0709: real time      0.0709


--------------------------------------------------------------------------------------------------------


 writing wavefunctions
     LOOP+:  cpu time    315.0296: real time    334.5587
    4ORBIT:  cpu time      0.0000: real time      0.0000

 total amount of memory used by VASP MPI-rank0   179929. kBytes
=======================================================================

   base      :      30000. kBytes
   nonl-proj :      87588. kBytes
   fftplans  :       6679. kBytes
   grid      :      37082. kBytes
   one-center:       1119. kBytes
   wavefun   :      17461. kBytes
 
  
  
 General timing and accounting informations for this job:
 ========================================================
  
                  Total CPU time used (sec):      334.585
                            User time (sec):      312.975
                          System time (sec):       21.610
                         Elapsed time (sec):      386.187
  
                   Maximum memory used (kb):      331844.
                   Average memory used (kb):          N/A
  
                          Minor page faults:       473993
                          Major page faults:         1779
                 Voluntary context switches:        42014
