  16  16   0   0
  0.1956167E+02  0.7611593E-09  0.7611593E-09  0.6237982E-09  0.5000000E-15
  1.000000000000000E-004
  CAR 
 unknown system                          
     19.67236311    -12.48105173  301      2.33631361      1.00000000
    -12.481  0.0000E+00  0.0000E+00
    -12.374  0.0000E+00  0.0000E+00
    -12.267  0.0000E+00  0.0000E+00
    -12.160  0.0000E+00  0.0000E+00
    -12.052  0.0000E+00  0.0000E+00
    -11.945  0.0000E+00  0.0000E+00
    -11.838  0.0000E+00  0.0000E+00
    -11.731  0.0000E+00  0.0000E+00
    -11.624  0.0000E+00  0.0000E+00
    -11.516  0.0000E+00  0.0000E+00
    -11.409  0.0000E+00  0.0000E+00
    -11.302  0.0000E+00  0.0000E+00
    -11.195  0.2877E-16  0.3084E-17
    -11.088  0.3379E-03  0.3621E-04
    -10.981  0.5009E+00  0.5372E-01
    -10.873  0.1053E+01  0.1666E+00
    -10.766  0.3245E+01  0.5144E+00
    -10.659  0.6079E+01  0.1166E+01
    -10.552  0.1161E+01  0.1290E+01
    -10.445  0.6090E+01  0.1943E+01
    -10.337  0.1295E+02  0.3332E+01
    -10.230  0.6454E+01  0.4023E+01
    -10.123  0.1049E+02  0.5148E+01
    -10.016  0.3068E+02  0.8436E+01
     -9.909  0.2104E+02  0.1069E+02
     -9.802  0.2979E+02  0.1388E+02
     -9.694  0.1971E+02  0.1600E+02
     -9.587  0.2999E-01  0.1600E+02
     -9.480  0.0000E+00  0.1600E+02
     -9.373  0.0000E+00  0.1600E+02
     -9.266  0.0000E+00  0.1600E+02
     -9.159  0.0000E+00  0.1600E+02
     -9.051  0.0000E+00  0.1600E+02
     -8.944  0.0000E+00  0.1600E+02
     -8.837  0.0000E+00  0.1600E+02
     -8.730  0.0000E+00  0.1600E+02
     -8.623  0.0000E+00  0.1600E+02
     -8.515  0.0000E+00  0.1600E+02
     -8.408  0.0000E+00  0.1600E+02
     -8.301  0.0000E+00  0.1600E+02
     -8.194  0.0000E+00  0.1600E+02
     -8.087  0.0000E+00  0.1600E+02
     -7.980  0.0000E+00  0.1600E+02
     -7.872  0.0000E+00  0.1600E+02
     -7.765  0.0000E+00  0.1600E+02
     -7.658  0.0000E+00  0.1600E+02
     -7.551  0.0000E+00  0.1600E+02
     -7.444  0.0000E+00  0.1600E+02
     -7.337  0.0000E+00  0.1600E+02
     -7.229  0.0000E+00  0.1600E+02
     -7.122  0.0000E+00  0.1600E+02
     -7.015  0.0000E+00  0.1600E+02
     -6.908  0.0000E+00  0.1600E+02
     -6.801  0.0000E+00  0.1600E+02
     -6.693  0.0000E+00  0.1600E+02
     -6.586  0.0000E+00  0.1600E+02
     -6.479  0.0000E+00  0.1600E+02
     -6.372  0.0000E+00  0.1600E+02
     -6.265  0.0000E+00  0.1600E+02
     -6.158  0.0000E+00  0.1600E+02
     -6.050  0.0000E+00  0.1600E+02
     -5.943  0.0000E+00  0.1600E+02
     -5.836  0.0000E+00  0.1600E+02
     -5.729  0.0000E+00  0.1600E+02
     -5.622  0.0000E+00  0.1600E+02
     -5.514  0.0000E+00  0.1600E+02
     -5.407  0.0000E+00  0.1600E+02
     -5.300  0.0000E+00  0.1600E+02
     -5.193  0.0000E+00  0.1600E+02
     -5.086  0.0000E+00  0.1600E+02
     -4.979  0.0000E+00  0.1600E+02
     -4.871  0.0000E+00  0.1600E+02
     -4.764  0.0000E+00  0.1600E+02
     -4.657  0.0000E+00  0.1600E+02
     -4.550  0.0000E+00  0.1600E+02
     -4.443  0.0000E+00  0.1600E+02
     -4.336  0.1285E-10  0.1600E+02
     -4.228  0.3749E+00  0.1604E+02
     -4.121  0.8992E+02  0.2568E+02
     -4.014  0.1356E+03  0.4021E+02
     -3.907  0.1089E+03  0.5189E+02
     -3.800  0.8893E+02  0.6142E+02
     -3.692  0.8071E+02  0.7007E+02
     -3.585  0.1486E+03  0.8599E+02
     -3.478  0.4501E+02  0.9081E+02
     -3.371  0.2502E+02  0.9350E+02
     -3.264  0.2310E+02  0.9597E+02
     -3.157  0.6041E+00  0.9604E+02
     -3.049  0.1796E+00  0.9606E+02
     -2.942  0.9857E-01  0.9607E+02
     -2.835  0.3144E+01  0.9640E+02
     -2.728  0.3019E+01  0.9673E+02
     -2.621  0.5849E+01  0.9735E+02
     -2.513  0.2372E+02  0.9990E+02
     -2.406  0.3674E+01  0.1003E+03
     -2.299  0.1549E+02  0.1020E+03
     -2.192  0.9344E+01  0.1030E+03
     -2.085  0.5242E+01  0.1035E+03
     -1.978  0.1046E+02  0.1046E+03
     -1.870  0.1339E+02  0.1061E+03
     -1.763  0.6076E+01  0.1067E+03
     -1.656  0.5696E+01  0.1073E+03
     -1.549  0.1568E+01  0.1075E+03
     -1.442  0.8050E+00  0.1076E+03
     -1.335  0.1161E+02  0.1088E+03
     -1.227  0.5205E+01  0.1094E+03
     -1.120  0.1027E+00  0.1094E+03
     -1.013  0.7458E+01  0.1102E+03
     -0.906  0.2557E+00  0.1102E+03
     -0.799  0.1086E+02  0.1114E+03
     -0.691  0.1876E+02  0.1134E+03
     -0.584  0.1594E+02  0.1151E+03
     -0.477  0.5441E+01  0.1157E+03
     -0.370  0.8052E+01  0.1166E+03
     -0.263  0.1145E-01  0.1166E+03
     -0.156  0.1755E+02  0.1184E+03
     -0.048  0.1225E+02  0.1198E+03
      0.059  0.1277E+01  0.1199E+03
      0.166  0.7010E+01  0.1206E+03
      0.273  0.1774E+02  0.1225E+03
      0.380  0.4464E+01  0.1230E+03
      0.487  0.3378E+02  0.1266E+03
      0.595  0.1317E+02  0.1281E+03
      0.702  0.8316E+01  0.1289E+03
      0.809  0.2490E+02  0.1316E+03
      0.916  0.2775E+02  0.1346E+03
      1.023  0.6216E+01  0.1353E+03
      1.131  0.1483E+02  0.1368E+03
      1.238  0.9780E+01  0.1379E+03
      1.345  0.1183E+02  0.1392E+03
      1.452  0.1729E+02  0.1410E+03
      1.559  0.6313E+01  0.1417E+03
      1.666  0.3439E+01  0.1421E+03
      1.774  0.2583E+01  0.1423E+03
      1.881  0.7399E+01  0.1431E+03
      1.988  0.3475E+01  0.1435E+03
      2.095  0.3036E+01  0.1438E+03
      2.202  0.1061E+01  0.1439E+03
      2.310  0.5863E+00  0.1440E+03
      2.417  0.5293E-06  0.1440E+03
      2.524  0.0000E+00  0.1440E+03
      2.631  0.0000E+00  0.1440E+03
      2.738  0.0000E+00  0.1440E+03
      2.845  0.0000E+00  0.1440E+03
      2.953  0.0000E+00  0.1440E+03
      3.060  0.0000E+00  0.1440E+03
      3.167  0.0000E+00  0.1440E+03
      3.274  0.0000E+00  0.1440E+03
      3.381  0.0000E+00  0.1440E+03
      3.488  0.0000E+00  0.1440E+03
      3.596  0.0000E+00  0.1440E+03
      3.703  0.0000E+00  0.1440E+03
      3.810  0.0000E+00  0.1440E+03
      3.917  0.0000E+00  0.1440E+03
      4.024  0.0000E+00  0.1440E+03
      4.132  0.0000E+00  0.1440E+03
      4.239  0.0000E+00  0.1440E+03
      4.346  0.2477E-04  0.1440E+03
      4.453  0.4536E+00  0.1440E+03
      4.560  0.6473E-01  0.1441E+03
      4.667  0.1433E-09  0.1441E+03
      4.775  0.0000E+00  0.1441E+03
      4.882  0.0000E+00  0.1441E+03
      4.989  0.0000E+00  0.1441E+03
      5.096  0.0000E+00  0.1441E+03
      5.203  0.1318E-06  0.1441E+03
      5.311  0.5094E+00  0.1441E+03
      5.418  0.1061E+01  0.1442E+03
      5.525  0.1125E+01  0.1443E+03
      5.632  0.3029E+01  0.1447E+03
      5.739  0.3927E+01  0.1451E+03
      5.846  0.9843E+01  0.1461E+03
      5.954  0.1333E+01  0.1463E+03
      6.061  0.9752E+01  0.1473E+03
      6.168  0.8779E+01  0.1483E+03
      6.275  0.2499E+01  0.1485E+03
      6.382  0.3629E+01  0.1489E+03
      6.489  0.4527E+02  0.1538E+03
      6.597  0.2562E+01  0.1541E+03
      6.704  0.8509E+01  0.1550E+03
      6.811  0.1323E+01  0.1551E+03
      6.918  0.4948E+01  0.1556E+03
      7.025  0.7496E+01  0.1564E+03
      7.133  0.2560E+01  0.1567E+03
      7.240  0.2407E+02  0.1593E+03
      7.347  0.1004E+02  0.1604E+03
      7.454  0.7754E+01  0.1612E+03
      7.561  0.6617E+00  0.1613E+03
      7.668  0.1208E-08  0.1613E+03
      7.776  0.5966E+00  0.1613E+03
      7.883  0.2285E+02  0.1638E+03
      7.990  0.1836E+02  0.1658E+03
      8.097  0.2337E+02  0.1683E+03
      8.204  0.2330E+02  0.1708E+03
      8.311  0.6924E+00  0.1708E+03
      8.419  0.1475E+02  0.1724E+03
      8.526  0.6550E+01  0.1731E+03
      8.633  0.9581E+01  0.1741E+03
      8.740  0.2166E+00  0.1742E+03
      8.847  0.5054E+00  0.1742E+03
      8.955  0.2660E+01  0.1745E+03
      9.062  0.9589E+01  0.1755E+03
      9.169  0.1902E+02  0.1776E+03
      9.276  0.2628E+02  0.1804E+03
      9.383  0.9293E+01  0.1814E+03
      9.490  0.3117E+01  0.1817E+03
      9.598  0.1505E+02  0.1833E+03
      9.705  0.2240E+02  0.1857E+03
      9.812  0.1812E+02  0.1877E+03
      9.919  0.3868E+01  0.1881E+03
     10.026  0.1896E+00  0.1881E+03
     10.134  0.1021E+01  0.1882E+03
     10.241  0.1291E+01  0.1884E+03
     10.348  0.8983E+01  0.1893E+03
     10.455  0.7414E+01  0.1901E+03
     10.562  0.1170E+02  0.1914E+03
     10.669  0.2552E+02  0.1941E+03
     10.777  0.2313E+02  0.1966E+03
     10.884  0.5839E+01  0.1972E+03
     10.991  0.1995E+01  0.1974E+03
     11.098  0.8990E+01  0.1984E+03
     11.205  0.3080E+01  0.1987E+03
     11.312  0.1902E+02  0.2008E+03
     11.420  0.2357E+02  0.2033E+03
     11.527  0.3003E+01  0.2036E+03
     11.634  0.3473E-01  0.2036E+03
     11.741  0.1775E+01  0.2038E+03
     11.848  0.6044E+01  0.2044E+03
     11.956  0.1118E+02  0.2056E+03
     12.063  0.2466E+02  0.2083E+03
     12.170  0.2231E+01  0.2085E+03
     12.277  0.7936E+01  0.2094E+03
     12.384  0.9584E-01  0.2094E+03
     12.491  0.1115E+02  0.2106E+03
     12.599  0.1657E+02  0.2124E+03
     12.706  0.3375E+01  0.2127E+03
     12.813  0.6030E+00  0.2128E+03
     12.920  0.1184E+02  0.2141E+03
     13.027  0.1139E+02  0.2153E+03
     13.135  0.1243E-02  0.2153E+03
     13.242  0.8486E+00  0.2154E+03
     13.349  0.1386E+02  0.2169E+03
     13.456  0.7240E+01  0.2176E+03
     13.563  0.1286E+02  0.2190E+03
     13.670  0.3027E+01  0.2193E+03
     13.778  0.1496E+01  0.2195E+03
     13.885  0.2875E+01  0.2198E+03
     13.992  0.2206E+02  0.2222E+03
     14.099  0.2162E+01  0.2224E+03
     14.206  0.1013E+02  0.2235E+03
     14.313  0.1914E+02  0.2255E+03
     14.421  0.9517E+01  0.2266E+03
     14.528  0.3753E+01  0.2270E+03
     14.635  0.6515E+01  0.2277E+03
     14.742  0.3599E+00  0.2277E+03
     14.849  0.4034E+01  0.2281E+03
     14.957  0.9296E+01  0.2291E+03
     15.064  0.1597E+02  0.2308E+03
     15.171  0.1355E+01  0.2310E+03
     15.278  0.1196E+02  0.2323E+03
     15.385  0.1488E+02  0.2339E+03
     15.492  0.8101E+01  0.2347E+03
     15.600  0.1422E+02  0.2362E+03
     15.707  0.1241E+02  0.2376E+03
     15.814  0.1093E+02  0.2387E+03
     15.921  0.1087E+02  0.2399E+03
     16.028  0.2320E+02  0.2424E+03
     16.135  0.5629E+01  0.2430E+03
     16.243  0.1012E+02  0.2441E+03
     16.350  0.1291E+02  0.2455E+03
     16.457  0.1190E+02  0.2467E+03
     16.564  0.1342E+02  0.2482E+03
     16.671  0.1333E+02  0.2496E+03
     16.779  0.6551E+01  0.2503E+03
     16.886  0.1691E+02  0.2521E+03
     16.993  0.7817E+01  0.2530E+03
     17.100  0.5485E+01  0.2536E+03
     17.207  0.2494E+01  0.2538E+03
     17.314  0.6833E+01  0.2546E+03
     17.422  0.1227E+01  0.2547E+03
     17.529  0.5007E+01  0.2552E+03
     17.636  0.3931E+01  0.2556E+03
     17.743  0.2060E+00  0.2557E+03
     17.850  0.2467E-03  0.2557E+03
     17.958  0.9747E+00  0.2558E+03
     18.065  0.6175E-01  0.2558E+03
     18.172  0.6860E-01  0.2558E+03
     18.279  0.2003E+01  0.2560E+03
     18.386  0.1351E-02  0.2560E+03
     18.493  0.0000E+00  0.2560E+03
     18.601  0.0000E+00  0.2560E+03
     18.708  0.0000E+00  0.2560E+03
     18.815  0.0000E+00  0.2560E+03
     18.922  0.0000E+00  0.2560E+03
     19.029  0.0000E+00  0.2560E+03
     19.136  0.0000E+00  0.2560E+03
     19.244  0.0000E+00  0.2560E+03
     19.351  0.0000E+00  0.2560E+03
     19.458  0.0000E+00  0.2560E+03
     19.565  0.0000E+00  0.2560E+03
     19.672  0.0000E+00  0.2560E+03
