72   
4    

1    
  0.0033749968256213  -0.0058456659773597   0.0073781830899067
  -0.0128176000    0.0226384400   -0.0275366500
   0.0013017100   -0.0024095700   -0.0011828200
  -0.0001678600   -0.0057925900   -0.0032010000
  -0.0006499000   -0.0016289800   -0.0014499500
  -0.0004577800    0.0028824500   -0.0029165600
   0.0004384400   -0.0007538600   -0.0011488500
  -0.0021128500   -0.0011974700   -0.0004382300
   0.0004415300   -0.0007546400   -0.0011448300
   0.0043082100    0.0043635800   -0.0039249100
   0.0000481500   -0.0000737500    0.0017226700
   0.0004110900   -0.0002098500   -0.0002423600
   0.0001506800    0.0007241300    0.0006187400
  -0.0001771500    0.0005760600    0.0001087400
   0.0005363100   -0.0002897000    0.0002706900
   0.0000506400   -0.0000768100    0.0000414700
  -0.0004391400   -0.0001174500   -0.0003182100
   0.0000481500   -0.0000751900    0.0000345100
  -0.0006116200   -0.0004119100    0.0007039400
   0.0001012500   -0.0046889100    0.0019619700
  -0.0000851900   -0.0008578500    0.0000173600
  -0.0057905600    0.0032195600    0.0001774100
   0.0049962200    0.0026423300    0.0010696100
   0.0005611000    0.0000736600   -0.0000469800
  -0.0003493100    0.0001097000   -0.0001920800
   0.0004404400   -0.0006626800    0.0000179200
   0.0003447800    0.0002795300    0.0000085800
  -0.0005937500    0.0004553400   -0.0001223800
   0.0001038300    0.0020800700   -0.0034116100
   0.0003481800   -0.0006068300    0.0000160000
   0.0000684700   -0.0001637800    0.0055373100
  -0.0008608200   -0.0007391500    0.0010676600
   0.0002396600    0.0002592200   -0.0003432100
  -0.0003472300   -0.0002616900    0.0000967700
   0.0000060300   -0.0004142800   -0.0003796000
   0.0003461400   -0.0002220100    0.0004055400
  -0.0002730400    0.0006452200   -0.0001221000
   0.0020934700   -0.0035703500    0.0116796800
  -0.0006035800    0.0011473700    0.0002787100
   0.0005308900   -0.0001407300    0.0015973600
  -0.0003585200   -0.0005697200    0.0009237100
  -0.0010031100   -0.0003819200    0.0009672400
  -0.0000359100    0.0000860500    0.0006442800
   0.0006866600    0.0009094800    0.0002557300
  -0.0001453700    0.0002626000    0.0006624700
   0.0005589700   -0.0005559200    0.0016306900
   0.0004132100   -0.0007052500   -0.0012281900
  -0.0005316000    0.0002411400    0.0007111800
  -0.0000482100    0.0006443800   -0.0010043900
   0.0002492500    0.0000543900    0.0000144800
  -0.0000573600   -0.0001157400   -0.0003008200
  -0.0000299200    0.0000741300    0.0000833900
   0.0006218800    0.0000688700    0.0008677000
  -0.0001439200    0.0002826600    0.0000187500
  -0.0004561500   -0.0004289600   -0.0011786100
  -0.0000265000    0.0005054700   -0.0009633100
  -0.0001123100    0.0002008400    0.0001311400
   0.0010301500   -0.0005839400   -0.0014959400
  -0.0007682000   -0.0003976000   -0.0012437700
  -0.0002515800   -0.0000408700    0.0001695900
   0.0001460000   -0.0001054900    0.0001493300
  -0.0000242100    0.0001417000    0.0001692700
  -0.0001163000    0.0000519600    0.0000936200
   0.0002762200   -0.0001915200    0.0001664900
   0.0018273600   -0.0061271300    0.0035395400
  -0.0008654500    0.0019091500    0.0006130100
   0.0088004900   -0.0072145400    0.0074918300
  -0.0005692700   -0.0045751300    0.0055959100
  -0.0004505800   -0.0002598300    0.0006851600
   0.0004296700    0.0010900500    0.0006238500
   0.0003636600    0.0009879400    0.0005095000
  -0.0010588300   -0.0002530300    0.0007311100
   0.0000717900   -0.0009808600    0.0006557500

1    
 -0.0033749968256213   0.0058456659773597  -0.0073781830899067
   0.0136571100   -0.0231468100    0.0263867200
  -0.0013052000    0.0024171600    0.0004372100
   0.0001558100    0.0058250200    0.0024589600
   0.0006555800    0.0016407500    0.0007070000
   0.0004617800   -0.0028652600    0.0021791400
  -0.0004430700    0.0007716100    0.0004095800
   0.0021202900    0.0012115300   -0.0003004300
  -0.0004441300    0.0007722100    0.0004084500
  -0.0043241600   -0.0043520900    0.0031933400
  -0.0000468200    0.0000935300   -0.0024652000
  -0.0004188200    0.0002231900   -0.0004970300
  -0.0001555700   -0.0007059600   -0.0013630400
   0.0001769600   -0.0005603800   -0.0008493100
  -0.0005383300    0.0003144900   -0.0010062500
  -0.0000477500    0.0000933400   -0.0007793000
   0.0004414100    0.0001352000   -0.0004150100
  -0.0000454600    0.0000941700   -0.0007779200
   0.0006092800    0.0004316400   -0.0014337800
  -0.0001022100    0.0046777400   -0.0026687600
   0.0000844900    0.0008407000   -0.0007450600
   0.0057760500   -0.0032225400   -0.0009044600
  -0.0049962100   -0.0026548600   -0.0017863000
  -0.0005630500   -0.0000876800   -0.0006835000
   0.0003487500   -0.0001262200   -0.0005405100
  -0.0004414800    0.0006467400   -0.0007469800
  -0.0003477800   -0.0002892500   -0.0007435100
   0.0005945600   -0.0004741100   -0.0006082200
  -0.0001002200   -0.0020966400    0.0026808000
  -0.0003504600    0.0005910500   -0.0007453100
  -0.0000936200    0.0001632700   -0.0062804600
   0.0008759200    0.0007337400   -0.0017961300
  -0.0002379900   -0.0002730500   -0.0003857300
   0.0003526300    0.0002498400   -0.0008352000
  -0.0000102500    0.0003960600   -0.0003526900
  -0.0003473200    0.0002086200   -0.0011394600
   0.0002687400   -0.0006590500   -0.0006115400
  -0.0020854000    0.0036472600   -0.0102590300
   0.0006184500   -0.0010980100    0.0004530800
  -0.0005173100    0.0001713800   -0.0008711400
   0.0003480100    0.0006050400   -0.0001835100
   0.0009864400    0.0004032700   -0.0002293600
   0.0000359500   -0.0000548700    0.0001121900
  -0.0007020700   -0.0008784400    0.0004745300
   0.0001355300   -0.0002196100    0.0000658800
  -0.0005451700    0.0005838400   -0.0008998200
  -0.0004141300    0.0007426700    0.0019419700
   0.0005431700   -0.0002179500    0.0000164200
   0.0000272700   -0.0005957000    0.0017441200
  -0.0002443800   -0.0000141600    0.0007234200
   0.0000582700    0.0001406100    0.0010286700
   0.0000299900   -0.0000188000    0.0006549700
  -0.0006337700   -0.0000378200   -0.0001365400
   0.0001541400   -0.0002352200    0.0007262000
   0.0004471200    0.0004477900    0.0018921600
   0.0000348200   -0.0005325500    0.0017244400
   0.0001101700   -0.0002203600    0.0006023300
  -0.0010281600    0.0005357600    0.0022274100
   0.0007637600    0.0003466300    0.0019727400
   0.0002397000    0.0000158000    0.0005504200
  -0.0001429100    0.0000798500    0.0005634700
   0.0000209700   -0.0001653400    0.0005563100
   0.0001164400   -0.0001015100    0.0006508500
  -0.0002712900    0.0001650200    0.0005648100
  -0.0018381300    0.0060866500   -0.0028230300
   0.0008687500   -0.0019492000    0.0001096900
  -0.0095228400    0.0075804100   -0.0069991100
   0.0005457600    0.0045235500   -0.0048329900
   0.0004408100    0.0002283600    0.0000429600
  -0.0004332400   -0.0011383200    0.0001195400
  -0.0003664600   -0.0010203700    0.0002271500
   0.0010565200    0.0002243500    0.0000106200
  -0.0000562300    0.0009522700    0.0000780700

37   
  0.0033749968256213  -0.0058456659773597   0.0073781830899067
   0.0020958900   -0.0036363900    0.0102463200
   0.0004569100   -0.0000450900    0.0009784000
  -0.0001287200    0.0012793500   -0.0005583000
   0.0002105100    0.0008010200   -0.0003412700
   0.0006503300   -0.0006707000    0.0007542000
  -0.0001420500    0.0002504000   -0.0000692900
  -0.0002899400   -0.0002247000    0.0004289500
  -0.0000413100    0.0000788800   -0.0001090000
  -0.0010938100   -0.0007451300   -0.0000149200
   0.0004191500   -0.0007171000   -0.0019546000
  -0.0015292500    0.0008159200   -0.0009245500
  -0.0002779600   -0.0006407100   -0.0008429700
   0.0003552700   -0.0013107900   -0.0008321700
  -0.0009261800    0.0005235000   -0.0009325100
  -0.0001482700    0.0002691600   -0.0007252800
   0.0017326700    0.0007227400   -0.0008741800
  -0.0000237400    0.0000536000   -0.0006472300
   0.0004072900    0.0003445100   -0.0008896600
   0.0018190300   -0.0118635700    0.0071433900
  -0.0011723400    0.0017563700   -0.0001203300
   0.0044949100   -0.0047400000    0.0026831000
   0.0040783100   -0.0018960500    0.0048403700
  -0.0008655100   -0.0000072100   -0.0004234200
   0.0004232300    0.0006339700    0.0002620200
   0.0006745700    0.0008253300    0.0000555600
  -0.0010587500    0.0001052000   -0.0002938600
   0.0004756500   -0.0007267300   -0.0000817100
  -0.0000349800   -0.0000042500   -0.0013103100
  -0.0000693500    0.0002268800   -0.0006039300
   0.0005722300   -0.0003043000   -0.0026399000
  -0.0003150800   -0.0001099300   -0.0019790000
  -0.0001227900   -0.0001016300   -0.0004481000
   0.0001457400    0.0000385300   -0.0006915100
  -0.0000714800    0.0001684200   -0.0005999500
  -0.0001178000    0.0000223600   -0.0006090700
   0.0001483400   -0.0002494300   -0.0005701300
  -0.0195664900    0.0344366200   -0.0418774400
   0.0017313600   -0.0042900600    0.0000678100
   0.0027163000   -0.0043979600   -0.0004936300
  -0.0016455300   -0.0026250900   -0.0001416400
   0.0024699800    0.0006399800   -0.0002771800
   0.0001462000   -0.0002342600    0.0001772000
  -0.0006417300   -0.0016751100    0.0001324600
   0.0001397600   -0.0002256800    0.0001708000
   0.0024103700    0.0002334700   -0.0005688500
  -0.0001322100    0.0002466900    0.0013275100
   0.0002009500   -0.0001251900    0.0011441600
   0.0000091500   -0.0001880900    0.0011642500
  -0.0000782100    0.0000560800    0.0011495600
   0.0000295300    0.0000871400    0.0011444000
   0.0000448100   -0.0000476300    0.0005754600
  -0.0002653600   -0.0000581600    0.0011403600
   0.0000493500   -0.0000484100    0.0005741800
   0.0001732300    0.0001777000    0.0011614700
  -0.0003209600   -0.0035250500    0.0049320400
   0.0002820500   -0.0003445200    0.0003443000
  -0.0010628800    0.0009636200    0.0023027200
   0.0018133100    0.0017605700    0.0036104200
   0.0004251600   -0.0001472900    0.0005834700
  -0.0000927500    0.0000649300    0.0002277100
  -0.0001887000   -0.0001524000    0.0002910700
   0.0002071500   -0.0000882900    0.0004043300
  -0.0003170900    0.0000143100    0.0004053600
  -0.0003119100    0.0005712500    0.0016559300
   0.0001490900   -0.0004172100    0.0003372600
   0.0024292900   -0.0010702900    0.0055197400
  -0.0017081100   -0.0002874700    0.0035942800
   0.0000101400    0.0000853300    0.0002017700
  -0.0000957300   -0.0004098700    0.0006115000
  -0.0000537000   -0.0002274400    0.0004158600
   0.0002173000    0.0000626600    0.0002809400
   0.0000961800    0.0002626900    0.0004053100

37   
 -0.0033749968256213   0.0058456659773597  -0.0073781830899067
  -0.0020753700    0.0035851600   -0.0116950800
  -0.0004563400    0.0000706600   -0.0017178100
   0.0001319300   -0.0012725500   -0.0001821200
  -0.0002170300   -0.0007905600   -0.0004089800
  -0.0006502600    0.0006851900   -0.0014950500
   0.0001369300   -0.0002317700   -0.0006777000
   0.0002931600    0.0002492300   -0.0011750600
   0.0000430600   -0.0000674100   -0.0006338300
   0.0011001800    0.0007686700   -0.0007319100
  -0.0004110700    0.0007249800    0.0012024000
   0.0015177900   -0.0008002500    0.0001829600
   0.0002724200    0.0006675100    0.0000952400
  -0.0003513900    0.0013249400    0.0000891600
   0.0009248800   -0.0005044800    0.0001907700
   0.0001522200   -0.0002517800   -0.0000122800
  -0.0017238200   -0.0007029900    0.0001315100
   0.0000247200   -0.0000313600   -0.0000952800
  -0.0004137200   -0.0003347800    0.0001478400
  -0.0018454200    0.0109971200   -0.0076677600
   0.0011787100   -0.0017682600   -0.0006208200
  -0.0045875400    0.0047299700   -0.0033763900
  -0.0040242400    0.0018875300   -0.0055900600
   0.0008568100   -0.0000073900   -0.0003168700
  -0.0004352600   -0.0006498600   -0.0009986600
  -0.0006649900   -0.0008424400   -0.0007866000
   0.0010565800   -0.0001196800   -0.0004512200
  -0.0004746800    0.0007136000   -0.0006573000
   0.0000340900   -0.0000077400    0.0005670100
   0.0000670900   -0.0002409600   -0.0001353600
  -0.0005759700    0.0002821600    0.0019147100
   0.0003128200    0.0000935100    0.0012361000
   0.0001256600    0.0000835100   -0.0002927000
  -0.0001402200   -0.0000497700   -0.0000467000
   0.0000684500   -0.0001837700   -0.0001411700
   0.0001187400   -0.0000410400   -0.0001296800
  -0.0001499300    0.0002334000   -0.0001692900
   0.0196411500   -0.0334975400    0.0430773500
  -0.0017118000    0.0042965100    0.0006676900
  -0.0027170400    0.0044637800    0.0012457300
   0.0016316200    0.0026355400    0.0009002200
  -0.0024748000   -0.0006086600    0.0010143000
  -0.0001455400    0.0002612400    0.0005710300
   0.0006503800    0.0017182800    0.0006054800
  -0.0001444000    0.0002636500    0.0005592500
  -0.0024123500   -0.0002102300    0.0013004800
   0.0001369200   -0.0002198800   -0.0005834700
  -0.0002066800    0.0001476000   -0.0003954500
  -0.0000176100    0.0002400800   -0.0004179800
   0.0000718900   -0.0000188600   -0.0004013200
  -0.0000331100   -0.0000516300   -0.0004156500
  -0.0000314000    0.0000832700    0.0001744500
   0.0002572300    0.0001045500   -0.0003864600
  -0.0000341700    0.0000934200    0.0001738000
  -0.0001761300   -0.0001638900   -0.0004213700
   0.0003148500    0.0034442200   -0.0041164100
  -0.0002847200    0.0003116200    0.0004005200
   0.0010714100   -0.0009944200   -0.0015912000
  -0.0018002300   -0.0017820800   -0.0028555300
  -0.0004300100    0.0001245100    0.0001579200
   0.0000938900   -0.0001000000    0.0005005400
   0.0001892900    0.0001168200    0.0004506600
  -0.0002179400    0.0000502500    0.0003458400
   0.0003186400   -0.0000506100    0.0003326000
   0.0003130500   -0.0006087500   -0.0009238200
  -0.0001581000    0.0003816200    0.0003896300
  -0.0024896800    0.0010510000   -0.0048325300
   0.0017342800    0.0002518900   -0.0028704500
  -0.0000106600   -0.0001203800    0.0005381000
   0.0000928000    0.0003791300    0.0001221600
   0.0000645400    0.0001955600    0.0003338700
  -0.0002118700   -0.0000949800    0.0004687100
  -0.0000926800   -0.0002909300    0.0003293400
