mesh: [    16,    16,    16 ]
nqpoint: 576    
reciprocal_lattice:
- [   0.24745879,  -0.14287040,   0.00000000 ] # a*
- [   0.24745879,   0.14287040,   0.00000000 ] # b*
- [   0.00000000,   0.00000000,   0.15092652 ] # c*
natom:   4      
lattice:
- [     2.020538445425289,    -3.499675246122836,     0.000000000000000 ] # a
- [     2.020538445425289,     3.499675246122836,     0.000000000000000 ] # b
- [     0.000000000000000,     0.000000000000000,     6.625740716570513 ] # c
points:
- symbol: Zn # 1
  coordinates: [  0.333333333333336,  0.666666666666664,  0.999679552657183 ]
  mass: 65.380000
- symbol: Zn # 2
  coordinates: [  0.666666666666664,  0.333333333333336,  0.499679552657183 ]
  mass: 65.380000
- symbol: S # 3
  coordinates: [  0.333333333333336,  0.666666666666664,  0.375320447342817 ]
  mass: 32.065000
- symbol: S # 4
  coordinates: [  0.666666666666664,  0.333333333333336,  0.875320447342817 ]
  mass: 32.065000

phonon:
- q-position: [    0.0312500,    0.0312500,    0.0312500 ]
  distance_from_gamma:  0.016169338
  weight: 4    
  band:
  - # 1
    frequency:     0.3661295358
  - # 2
    frequency:     0.4367285618
  - # 3
    frequency:     0.7593234445
  - # 4
    frequency:     2.2915455846
  - # 5
    frequency:     2.3250081723
  - # 6
    frequency:     4.7538952269
  - # 7
    frequency:     5.6872831389
  - # 8
    frequency:     6.0325809892
  - # 9
    frequency:     6.0326939994
  - # 10
    frequency:     6.0913315768
  - # 11
    frequency:     6.1608640630
  - # 12
    frequency:     7.8617071658

- q-position: [    0.0937500,    0.0312500,    0.0312500 ]
  distance_from_gamma:  0.032539043
  weight: 8    
  band:
  - # 1
    frequency:     0.8378255913
  - # 2
    frequency:     0.8626831983
  - # 3
    frequency:     1.4179858231
  - # 4
    frequency:     2.3458816381
  - # 5
    frequency:     2.4812574560
  - # 6
    frequency:     4.6607784120
  - # 7
    frequency:     5.7067312855
  - # 8
    frequency:     6.0623128967
  - # 9
    frequency:     6.1405433069
  - # 10
    frequency:     6.2515917495
  - # 11
    frequency:     6.5244800761
  - # 12
    frequency:     7.8235429332

- q-position: [    0.1562500,    0.0312500,    0.0312500 ]
  distance_from_gamma:  0.049940010
  weight: 8    
  band:
  - # 1
    frequency:     1.2732828131
  - # 2
    frequency:     1.2971623779
  - # 3
    frequency:     2.0855165125
  - # 4
    frequency:     2.4343193769
  - # 5
    frequency:     2.7304490294
  - # 6
    frequency:     4.5390667054
  - # 7
    frequency:     5.7571076993
  - # 8
    frequency:     6.1196974277
  - # 9
    frequency:     6.2662137179
  - # 10
    frequency:     6.5053941209
  - # 11
    frequency:     7.0263520309
  - # 12
    frequency:     7.7587478181

- q-position: [    0.2187500,    0.0312500,    0.0312500 ]
  distance_from_gamma:  0.067580274
  weight: 8    
  band:
  - # 1
    frequency:     1.6335650329
  - # 2
    frequency:     1.7031024979
  - # 3
    frequency:     2.4804703366
  - # 4
    frequency:     2.6676816741
  - # 5
    frequency:     3.0697977638
  - # 6
    frequency:     4.4677505384
  - # 7
    frequency:     5.8393316466
  - # 8
    frequency:     6.1643467456
  - # 9
    frequency:     6.3931909296
  - # 10
    frequency:     6.7910317636
  - # 11
    frequency:     7.5190954328
  - # 12
    frequency:     7.6823359958

- q-position: [    0.2812500,    0.0312500,    0.0312500 ]
  distance_from_gamma:  0.085311521
  weight: 8    
  band:
  - # 1
    frequency:     1.9227342291
  - # 2
    frequency:     2.0367422284
  - # 3
    frequency:     2.5605783368
  - # 4
    frequency:     2.8590110496
  - # 5
    frequency:     3.5734028609
  - # 6
    frequency:     4.5262629405
  - # 7
    frequency:     5.9527923781
  - # 8
    frequency:     6.1688071370
  - # 9
    frequency:     6.5140856950
  - # 10
    frequency:     7.0430111445
  - # 11
    frequency:     7.5829099861
  - # 12
    frequency:     7.9320670789

- q-position: [    0.3437500,    0.0312500,    0.0312500 ]
  distance_from_gamma:  0.103086815
  weight: 8    
  band:
  - # 1
    frequency:     2.1241425537
  - # 2
    frequency:     2.2875093684
  - # 3
    frequency:     2.6080267384
  - # 4
    frequency:     2.8434714559
  - # 5
    frequency:     4.0832350725
  - # 6
    frequency:     4.6856061137
  - # 7
    frequency:     6.0888620405
  - # 8
    frequency:     6.1375629784
  - # 9
    frequency:     6.6159655350
  - # 10
    frequency:     7.1724953403
  - # 11
    frequency:     7.5789659327
  - # 12
    frequency:     8.1687935990

- q-position: [    0.4062500,    0.0312500,    0.0312500 ]
  distance_from_gamma:  0.120886726
  weight: 8    
  band:
  - # 1
    frequency:     2.2287317496
  - # 2
    frequency:     2.4593420915
  - # 3
    frequency:     2.6469126599
  - # 4
    frequency:     2.7617971689
  - # 5
    frequency:     4.4902980580
  - # 6
    frequency:     4.8172273374
  - # 7
    frequency:     6.0897208944
  - # 8
    frequency:     6.2295663524
  - # 9
    frequency:     6.6864503845
  - # 10
    frequency:     7.1391528757
  - # 11
    frequency:     7.6976038995
  - # 12
    frequency:     8.2530568987

- q-position: [    0.4687500,    0.0312500,    0.0312500 ]
  distance_from_gamma:  0.138701778
  weight: 8    
  band:
  - # 1
    frequency:     2.2605655142
  - # 2
    frequency:     2.5571226147
  - # 3
    frequency:     2.6707488811
  - # 4
    frequency:     2.6907775830
  - # 5
    frequency:     4.7463180087
  - # 6
    frequency:     4.8184548426
  - # 7
    frequency:     6.0636836870
  - # 8
    frequency:     6.3122205740
  - # 9
    frequency:     6.7178593866
  - # 10
    frequency:     7.0853510604
  - # 11
    frequency:     7.7989981747
  - # 12
    frequency:     8.2500669313

- q-position: [   -0.4687500,    0.0312500,    0.0312500 ]
  distance_from_gamma:  0.129792749
  weight: 8    
  band:
  - # 1
    frequency:     2.2511190452
  - # 2
    frequency:     2.5189050642
  - # 3
    frequency:     2.6623832790
  - # 4
    frequency:     2.7205137055
  - # 5
    frequency:     4.6398172215
  - # 6
    frequency:     4.8374846243
  - # 7
    frequency:     6.0729206363
  - # 8
    frequency:     6.2822284168
  - # 9
    frequency:     6.7073192922
  - # 10
    frequency:     7.1063127924
  - # 11
    frequency:     7.7603726626
  - # 12
    frequency:     8.2555609980

- q-position: [   -0.4062500,    0.0312500,    0.0312500 ]
  distance_from_gamma:  0.111984426
  weight: 8    
  band:
  - # 1
    frequency:     2.1879622194
  - # 2
    frequency:     2.3825620023
  - # 3
    frequency:     2.6280500442
  - # 4
    frequency:     2.8051541858
  - # 5
    frequency:     4.3030727699
  - # 6
    frequency:     4.7629200988
  - # 7
    frequency:     6.1103455526
  - # 8
    frequency:     6.1646011043
  - # 9
    frequency:     6.6557347517
  - # 10
    frequency:     7.1684115122
  - # 11
    frequency:     7.6298499334
  - # 12
    frequency:     8.2276268192

- q-position: [   -0.3437500,    0.0312500,    0.0312500 ]
  distance_from_gamma:  0.094195219
  weight: 8    
  band:
  - # 1
    frequency:     2.0354526922
  - # 2
    frequency:     2.1725699193
  - # 3
    frequency:     2.5863667470
  - # 4
    frequency:     2.8664643116
  - # 5
    frequency:     3.8370599425
  - # 6
    frequency:     4.6007017650
  - # 7
    frequency:     6.0193621338
  - # 8
    frequency:     6.1559833402
  - # 9
    frequency:     6.5682661441
  - # 10
    frequency:     7.1305716382
  - # 11
    frequency:     7.5641926205
  - # 12
    frequency:     8.0707526700

- q-position: [   -0.2812500,    0.0312500,    0.0312500 ]
  distance_from_gamma:  0.076438474
  weight: 8    
  band:
  - # 1
    frequency:     1.7880370621
  - # 2
    frequency:     1.8799543964
  - # 3
    frequency:     2.5274811869
  - # 4
    frequency:     2.8005246434
  - # 5
    frequency:     3.3078961716
  - # 6
    frequency:     4.4788967495
  - # 7
    frequency:     5.8923614041
  - # 8
    frequency:     6.1721132670
  - # 9
    frequency:     6.4551312541
  - # 10
    frequency:     6.9255210281
  - # 11
    frequency:     7.6133874617
  - # 12
    frequency:     7.7594956044

- q-position: [   -0.2187500,    0.0312500,    0.0312500 ]
  distance_from_gamma:  0.058743637
  weight: 8    
  band:
  - # 1
    frequency:     1.4613559842
  - # 2
    frequency:     1.5079669362
  - # 3
    frequency:     2.3610775192
  - # 4
    frequency:     2.5059438846
  - # 5
    frequency:     2.8826905743
  - # 6
    frequency:     4.4910856400
  - # 7
    frequency:     5.7942115648
  - # 8
    frequency:     6.1459833585
  - # 9
    frequency:     6.3298467155
  - # 10
    frequency:     6.6484100651
  - # 11
    frequency:     7.2833868244
  - # 12
    frequency:     7.7193092677

- q-position: [   -0.1562500,    0.0312500,    0.0312500 ]
  distance_from_gamma:  0.041190567
  weight: 8    
  band:
  - # 1
    frequency:     1.0685059347
  - # 2
    frequency:     1.0768176751
  - # 3
    frequency:     1.7587560821
  - # 4
    frequency:     2.3861716895
  - # 5
    frequency:     2.5967197780
  - # 6
    frequency:     4.5993563647
  - # 7
    frequency:     5.7279650935
  - # 8
    frequency:     6.0900062172
  - # 9
    frequency:     6.2029423459
  - # 10
    frequency:     6.3701231330
  - # 11
    frequency:     6.7674645390
  - # 12
    frequency:     7.7940675688

- q-position: [   -0.0937500,    0.0312500,    0.0312500 ]
  distance_from_gamma:  0.024091165
  weight: 8    
  band:
  - # 1
    frequency:     0.5993469860
  - # 2
    frequency:     0.6463222520
  - # 3
    frequency:     1.0784758004
  - # 4
    frequency:     2.3138203578
  - # 5
    frequency:     2.3890893409
  - # 6
    frequency:     4.7144698623
  - # 7
    frequency:     5.6933550762
  - # 8
    frequency:     6.0418145728
  - # 9
    frequency:     6.0808474404
  - # 10
    frequency:     6.1582696697
  - # 11
    frequency:     6.3160305277
  - # 12
    frequency:     7.8462741716

- q-position: [   -0.0312500,    0.0312500,    0.0312500 ]
  distance_from_gamma:  0.010098471
  weight: 4    
  band:
  - # 1
    frequency:     0.1855666558
  - # 2
    frequency:     0.2739724325
  - # 3
    frequency:     0.5145052700
  - # 4
    frequency:     2.2803776858
  - # 5
    frequency:     2.2919967635
  - # 6
    frequency:     4.7747021871
  - # 7
    frequency:     5.6861481364
  - # 8
    frequency:     6.0131961049
  - # 9
    frequency:     6.0313096299
  - # 10
    frequency:     6.0463937728
  - # 11
    frequency:     6.0776987560
  - # 12
    frequency:     7.8695047977

- q-position: [    0.0937500,    0.0937500,    0.0312500 ]
  distance_from_gamma:  0.046637623
  weight: 4    
  band:
  - # 1
    frequency:     1.2114405803
  - # 2
    frequency:     1.2353376232
  - # 3
    frequency:     1.9238200483
  - # 4
    frequency:     2.4564560630
  - # 5
    frequency:     2.6484052873
  - # 6
    frequency:     4.5599467950
  - # 7
    frequency:     5.7446307908
  - # 8
    frequency:     6.1804144047
  - # 9
    frequency:     6.1903046128
  - # 10
    frequency:     6.4566271365
  - # 11
    frequency:     6.9108241787
  - # 12
    frequency:     7.7723236266

- q-position: [    0.1562500,    0.0937500,    0.0312500 ]
  distance_from_gamma:  0.062683490
  weight: 8    
  band:
  - # 1
    frequency:     1.5917886206
  - # 2
    frequency:     1.6059167275
  - # 3
    frequency:     2.3289328028
  - # 4
    frequency:     2.6985751517
  - # 5
    frequency:     2.8751244195
  - # 6
    frequency:     4.4716256521
  - # 7
    frequency:     5.8125338629
  - # 8
    frequency:     6.2444389474
  - # 9
    frequency:     6.3458998727
  - # 10
    frequency:     6.6937486279
  - # 11
    frequency:     7.3564640578
  - # 12
    frequency:     7.6982568567

- q-position: [    0.2187500,    0.0937500,    0.0312500 ]
  distance_from_gamma:  0.079506260
  weight: 8    
  band:
  - # 1
    frequency:     1.9033020611
  - # 2
    frequency:     1.9428177715
  - # 3
    frequency:     2.5035304682
  - # 4
    frequency:     2.8785543210
  - # 5
    frequency:     3.3107099991
  - # 6
    frequency:     4.4729325033
  - # 7
    frequency:     5.9119648926
  - # 8
    frequency:     6.2811344125
  - # 9
    frequency:     6.4989366062
  - # 10
    frequency:     6.9316251315
  - # 11
    frequency:     7.6030958992
  - # 12
    frequency:     7.7620715066

- q-position: [    0.2812500,    0.0937500,    0.0312500 ]
  distance_from_gamma:  0.096701316
  weight: 8    
  band:
  - # 1
    frequency:     2.1356585904
  - # 2
    frequency:     2.2168639543
  - # 3
    frequency:     2.5916304665
  - # 4
    frequency:     2.8854237025
  - # 5
    frequency:     3.8181220075
  - # 6
    frequency:     4.5842190147
  - # 7
    frequency:     6.0394916986
  - # 8
    frequency:     6.2776330618
  - # 9
    frequency:     6.6269990123
  - # 10
    frequency:     7.1130891978
  - # 11
    frequency:     7.5442932066
  - # 12
    frequency:     8.0364787967

- q-position: [    0.3437500,    0.0937500,    0.0312500 ]
  distance_from_gamma:  0.114100468
  weight: 8    
  band:
  - # 1
    frequency:     2.2857564928
  - # 2
    frequency:     2.4165924466
  - # 3
    frequency:     2.6449885565
  - # 4
    frequency:     2.8154966282
  - # 5
    frequency:     4.2568722711
  - # 6
    frequency:     4.7208968025
  - # 7
    frequency:     6.1733597299
  - # 8
    frequency:     6.2549440651
  - # 9
    frequency:     6.7184951806
  - # 10
    frequency:     7.1483951857
  - # 11
    frequency:     7.5933940885
  - # 12
    frequency:     8.1706455151

- q-position: [    0.4062500,    0.0937500,    0.0312500 ]
  distance_from_gamma:  0.131622805
  weight: 8    
  band:
  - # 1
    frequency:     2.3573994154
  - # 2
    frequency:     2.5474891816
  - # 3
    frequency:     2.6777005229
  - # 4
    frequency:     2.7343588887
  - # 5
    frequency:     4.5772629642
  - # 6
    frequency:     4.7748473347
  - # 7
    frequency:     6.1980034926
  - # 8
    frequency:     6.3194676438
  - # 9
    frequency:     6.7678441416
  - # 10
    frequency:     7.0876133304
  - # 11
    frequency:     7.7083057005
  - # 12
    frequency:     8.1924395482

- q-position: [   -0.5312500,    0.0937500,    0.0312500 ]
  distance_from_gamma:  0.140415769
  weight: 8    
  band:
  - # 1
    frequency:     2.3700021990
  - # 2
    frequency:     2.5849248814
  - # 3
    frequency:     2.6807064931
  - # 4
    frequency:     2.7094396021
  - # 5
    frequency:     4.6825652975
  - # 6
    frequency:     4.7491283773
  - # 7
    frequency:     6.1921070812
  - # 8
    frequency:     6.3485891483
  - # 9
    frequency:     6.7770621200
  - # 10
    frequency:     7.0667570462
  - # 11
    frequency:     7.7426951016
  - # 12
    frequency:     8.1872113628

- q-position: [   -0.4687500,    0.0937500,    0.0312500 ]
  distance_from_gamma:  0.122849524
  weight: 8    
  band:
  - # 1
    frequency:     2.3303016458
  - # 2
    frequency:     2.4901686526
  - # 3
    frequency:     2.6642805838
  - # 4
    frequency:     2.7732427574
  - # 5
    frequency:     4.4341662443
  - # 6
    frequency:     4.7634846397
  - # 7
    frequency:     6.2028024332
  - # 8
    frequency:     6.2747536727
  - # 9
    frequency:     6.7485154391
  - # 10
    frequency:     7.1200621931
  - # 11
    frequency:     7.6524942660
  - # 12
    frequency:     8.1913244812

- q-position: [   -0.4062500,    0.0937500,    0.0312500 ]
  distance_from_gamma:  0.105381670
  weight: 8    
  band:
  - # 1
    frequency:     2.2212220006
  - # 2
    frequency:     2.3258752321
  - # 3
    frequency:     2.6211459510
  - # 4
    frequency:     2.8552477377
  - # 5
    frequency:     4.0497715034
  - # 6
    frequency:     4.6567902234
  - # 7
    frequency:     6.1090297055
  - # 8
    frequency:     6.2652361873
  - # 9
    frequency:     6.6778226575
  - # 10
    frequency:     7.1518662529
  - # 11
    frequency:     7.5518550202
  - # 12
    frequency:     8.1208451839

- q-position: [   -0.3437500,    0.0937500,    0.0312500 ]
  distance_from_gamma:  0.088070771
  weight: 8    
  band:
  - # 1
    frequency:     2.0294020449
  - # 2
    frequency:     2.0890276842
  - # 3
    frequency:     2.5537134174
  - # 4
    frequency:     2.8967305010
  - # 5
    frequency:     3.5685121138
  - # 6
    frequency:     4.5182269513
  - # 7
    frequency:     5.9728110592
  - # 8
    frequency:     6.2840706704
  - # 9
    frequency:     6.5669370356
  - # 10
    frequency:     7.0347699616
  - # 11
    frequency:     7.5668945966
  - # 12
    frequency:     7.9158617471

- q-position: [   -0.2812500,    0.0937500,    0.0312500 ]
  distance_from_gamma:  0.071031673
  weight: 8    
  band:
  - # 1
    frequency:     1.7578603074
  - # 2
    frequency:     1.7801363777
  - # 3
    frequency:     2.4342612900
  - # 4
    frequency:     2.8185016626
  - # 5
    frequency:     3.0647100098
  - # 6
    frequency:     4.4572222710
  - # 7
    frequency:     5.8583438710
  - # 8
    frequency:     6.2676012575
  - # 9
    frequency:     6.4246137382
  - # 10
    frequency:     6.8153626417
  - # 11
    frequency:     7.5609337578
  - # 12
    frequency:     7.6608898467

- q-position: [   -0.2187500,    0.0937500,    0.0312500 ]
  distance_from_gamma:  0.054519810
  weight: 8    
  band:
  - # 1
    frequency:     1.4060688804
  - # 2
    frequency:     1.4248248031
  - # 3
    frequency:     2.1579401548
  - # 4
    frequency:     2.5570898471
  - # 5
    frequency:     2.7508106771
  - # 6
    frequency:     4.5092954459
  - # 7
    frequency:     5.7746679589
  - # 8
    frequency:     6.2147609647
  - # 9
    frequency:     6.2654300872
  - # 10
    frequency:     6.5726482828
  - # 11
    frequency:     7.1338961431
  - # 12
    frequency:     7.7375013909

- q-position: [   -0.1562500,    0.0937500,    0.0312500 ]
  distance_from_gamma:  0.039207071
  weight: 8    
  band:
  - # 1
    frequency:     1.0178623022
  - # 2
    frequency:     1.0431284743
  - # 3
    frequency:     1.6663917714
  - # 4
    frequency:     2.3896828226
  - # 5
    frequency:     2.5577085463
  - # 6
    frequency:     4.6133105009
  - # 7
    frequency:     5.7221478905
  - # 8
    frequency:     6.1154086166
  - # 9
    frequency:     6.1584827629
  - # 10
    frequency:     6.3488084861
  - # 11
    frequency:     6.7024670779
  - # 12
    frequency:     7.8012681994

- q-position: [   -0.0937500,    0.0937500,    0.0312500 ]
  distance_from_gamma:  0.027200231
  weight: 4    
  band:
  - # 1
    frequency:     0.6893602458
  - # 2
    frequency:     0.7203998816
  - # 3
    frequency:     1.2079285477
  - # 4
    frequency:     2.3218209576
  - # 5
    frequency:     2.4230130999
  - # 6
    frequency:     4.6958983212
  - # 7
    frequency:     5.6975214643
  - # 8
    frequency:     6.0354303751
  - # 9
    frequency:     6.1267251269
  - # 10
    frequency:     6.1750504872
  - # 11
    frequency:     6.3913328900
  - # 12
    frequency:     7.8386475140

- q-position: [    0.1562500,    0.1562500,    0.0312500 ]
  distance_from_gamma:  0.077474568
  weight: 4    
  band:
  - # 1
    frequency:     1.9036621052
  - # 2
    frequency:     1.9265980335
  - # 3
    frequency:     2.4548683400
  - # 4
    frequency:     2.9346023954
  - # 5
    frequency:     3.1622810297
  - # 6
    frequency:     4.4550468254
  - # 7
    frequency:     5.8984551303
  - # 8
    frequency:     6.3830081558
  - # 9
    frequency:     6.4696457176
  - # 10
    frequency:     6.8773451486
  - # 11
    frequency:     7.6192161425
  - # 12
    frequency:     7.6715020140

- q-position: [    0.2187500,    0.1562500,    0.0312500 ]
  distance_from_gamma:  0.093344903
  weight: 8    
  band:
  - # 1
    frequency:     2.1714808244
  - # 2
    frequency:     2.1891105325
  - # 3
    frequency:     2.5638847432
  - # 4
    frequency:     2.9430681037
  - # 5
    frequency:     3.6046047316
  - # 6
    frequency:     4.5167493319
  - # 7
    frequency:     6.0149706000
  - # 8
    frequency:     6.4478638382
  - # 9
    frequency:     6.6379789824
  - # 10
    frequency:     7.0299286524
  - # 11
    frequency:     7.5394484924
  - # 12
    frequency:     7.9114694704

- q-position: [    0.2812500,    0.1562500,    0.0312500 ]
  distance_from_gamma:  0.109827623
  weight: 8    
  band:
  - # 1
    frequency:     2.3661542659
  - # 2
    frequency:     2.3933546337
  - # 3
    frequency:     2.6514842363
  - # 4
    frequency:     2.8864377918
  - # 5
    frequency:     4.0113481272
  - # 6
    frequency:     4.6146463794
  - # 7
    frequency:     6.1540209079
  - # 8
    frequency:     6.4634079236
  - # 9
    frequency:     6.7733184526
  - # 10
    frequency:     7.1119579350
  - # 11
    frequency:     7.5081913605
  - # 12
    frequency:     8.0467868114

- q-position: [    0.3437500,    0.1562500,    0.0312500 ]
  distance_from_gamma:  0.126683921
  weight: 8    
  band:
  - # 1
    frequency:     2.4897411087
  - # 2
    frequency:     2.5441471052
  - # 3
    frequency:     2.7073422284
  - # 4
    frequency:     2.8061041104
  - # 5
    frequency:     4.3419286316
  - # 6
    frequency:     4.6734495281
  - # 7
    frequency:     6.2876191587
  - # 8
    frequency:     6.4619031735
  - # 9
    frequency:     6.8416584935
  - # 10
    frequency:     7.0919855400
  - # 11
    frequency:     7.5701947583
  - # 12
    frequency:     8.0841241599

- q-position: [    0.4062500,    0.1562500,    0.0312500 ]
  distance_from_gamma:  0.143782469
  weight: 8    
  band:
  - # 1
    frequency:     2.5488491957
  - # 2
    frequency:     2.6428314791
  - # 3
    frequency:     2.7073477682
  - # 4
    frequency:     2.7497773622
  - # 5
    frequency:     4.5640047096
  - # 6
    frequency:     4.6357375109
  - # 7
    frequency:     6.3525376722
  - # 8
    frequency:     6.4782205521
  - # 9
    frequency:     6.8489960454
  - # 10
    frequency:     7.0579076968
  - # 11
    frequency:     7.6368596217
  - # 12
    frequency:     8.0738600748

- q-position: [   -0.5312500,    0.1562500,    0.0312500 ]
  distance_from_gamma:  0.135208628
  weight: 8    
  band:
  - # 1
    frequency:     2.5282765388
  - # 2
    frequency:     2.6000372557
  - # 3
    frequency:     2.7191343918
  - # 4
    frequency:     2.7678991633
  - # 5
    frequency:     4.4685144722
  - # 6
    frequency:     4.6685750499
  - # 7
    frequency:     6.3322543481
  - # 8
    frequency:     6.4682969145
  - # 9
    frequency:     6.8500017633
  - # 10
    frequency:     7.0704323194
  - # 11
    frequency:     7.6110340884
  - # 12
    frequency:     8.0801082132

- q-position: [   -0.4687500,    0.1562500,    0.0312500 ]
  distance_from_gamma:  0.118218979
  weight: 8    
  band:
  - # 1
    frequency:     2.4356493281
  - # 2
    frequency:     2.4757144438
  - # 3
    frequency:     2.6837948178
  - # 4
    frequency:     2.8473571928
  - # 5
    frequency:     4.1882932824
  - # 6
    frequency:     4.6533454924
  - # 7
    frequency:     6.2247202021
  - # 8
    frequency:     6.4621357782
  - # 9
    frequency:     6.8166087938
  - # 10
    frequency:     7.1112769368
  - # 11
    frequency:     7.5303609334
  - # 12
    frequency:     8.0756424282

- q-position: [   -0.4062500,    0.1562500,    0.0312500 ]
  distance_from_gamma:  0.101528098
  weight: 8    
  band:
  - # 1
    frequency:     2.2791363710
  - # 2
    frequency:     2.2973098165
  - # 3
    frequency:     2.6112108916
  - # 4
    frequency:     2.9198509576
  - # 5
    frequency:     3.8152648106
  - # 6
    frequency:     4.5658410623
  - # 7
    frequency:     6.0827192533
  - # 8
    frequency:     6.4600764148
  - # 9
    frequency:     6.7128489941
  - # 10
    frequency:     7.0837443381
  - # 11
    frequency:     7.5128377028
  - # 12
    frequency:     7.9927411698

- q-position: [   -0.3437500,    0.1562500,    0.0312500 ]
  distance_from_gamma:  0.085311521
  weight: 8    
  band:
  - # 1
    frequency:     2.0448385850
  - # 2
    frequency:     2.0665279412
  - # 3
    frequency:     2.5111170787
  - # 4
    frequency:     2.9503083609
  - # 5
    frequency:     3.3844978287
  - # 6
    frequency:     4.4772142703
  - # 7
    frequency:     5.9531256778
  - # 8
    frequency:     6.4234910890
  - # 9
    frequency:     6.5538456974
  - # 10
    frequency:     6.9591283049
  - # 11
    frequency:     7.5775240858
  - # 12
    frequency:     7.8034426553

- q-position: [   -0.2812500,    0.1562500,    0.0312500 ]
  distance_from_gamma:  0.069900144
  weight: 8    
  band:
  - # 1
    frequency:     1.7516455347
  - # 2
    frequency:     1.7706818302
  - # 3
    frequency:     2.3957843407
  - # 4
    frequency:     2.8714484920
  - # 5
    frequency:     2.9670728269
  - # 6
    frequency:     4.4537725996
  - # 7
    frequency:     5.8515468193
  - # 8
    frequency:     6.3206333493
  - # 9
    frequency:     6.3994542604
  - # 10
    frequency:     6.7879880740
  - # 11
    frequency:     7.5201189438
  - # 12
    frequency:     7.6604566109

- q-position: [   -0.2187500,    0.1562500,    0.0312500 ]
  distance_from_gamma:  0.055963185
  weight: 8    
  band:
  - # 1
    frequency:     1.4272657453
  - # 2
    frequency:     1.4454709985
  - # 3
    frequency:     2.2337731005
  - # 4
    frequency:     2.5313676110
  - # 5
    frequency:     2.8041997188
  - # 6
    frequency:     4.5026577342
  - # 7
    frequency:     5.7812147112
  - # 8
    frequency:     6.1733971271
  - # 9
    frequency:     6.3019400067
  - # 10
    frequency:     6.5979035305
  - # 11
    frequency:     7.1885998153
  - # 12
    frequency:     7.7313481781

- q-position: [   -0.1562500,    0.1562500,    0.0312500 ]
  distance_from_gamma:  0.044895429
  weight: 4    
  band:
  - # 1
    frequency:     1.1501522409
  - # 2
    frequency:     1.1689452268
  - # 3
    frequency:     1.9117128673
  - # 4
    frequency:     2.3952216060
  - # 5
    frequency:     2.6585491339
  - # 6
    frequency:     4.5733015517
  - # 7
    frequency:     5.7395489203
  - # 8
    frequency:     6.0907649354
  - # 9
    frequency:     6.2364631162
  - # 10
    frequency:     6.4247627246
  - # 11
    frequency:     6.8812732811
  - # 12
    frequency:     7.7798014804

- q-position: [    0.2187500,    0.2187500,    0.0312500 ]
  distance_from_gamma:  0.108365908
  weight: 4    
  band:
  - # 1
    frequency:     2.3803757731
  - # 2
    frequency:     2.4102525747
  - # 3
    frequency:     2.6509446611
  - # 4
    frequency:     2.9354125192
  - # 5
    frequency:     3.8930142025
  - # 6
    frequency:     4.5689171381
  - # 7
    frequency:     6.1457033887
  - # 8
    frequency:     6.5883669558
  - # 9
    frequency:     6.7982925233
  - # 10
    frequency:     7.0643788167
  - # 11
    frequency:     7.4842189861
  - # 12
    frequency:     7.9807516692

- q-position: [    0.2812500,    0.2187500,    0.0312500 ]
  distance_from_gamma:  0.124140817
  weight: 8    
  band:
  - # 1
    frequency:     2.5426320977
  - # 2
    frequency:     2.5680794982
  - # 3
    frequency:     2.7379575164
  - # 4
    frequency:     2.9025038440
  - # 5
    frequency:     4.1473319491
  - # 6
    frequency:     4.5886848617
  - # 7
    frequency:     6.2916171367
  - # 8
    frequency:     6.6664175851
  - # 9
    frequency:     6.9218032716
  - # 10
    frequency:     7.0563288275
  - # 11
    frequency:     7.4660088382
  - # 12
    frequency:     7.9802995739

- q-position: [    0.3437500,    0.2187500,    0.0312500 ]
  distance_from_gamma:  0.140415769
  weight: 8    
  band:
  - # 1
    frequency:     2.6429721501
  - # 2
    frequency:     2.6809542874
  - # 3
    frequency:     2.7969675215
  - # 4
    frequency:     2.8508431037
  - # 5
    frequency:     4.3502685468
  - # 6
    frequency:     4.5511932039
  - # 7
    frequency:     6.4180526214
  - # 8
    frequency:     6.7122997290
  - # 9
    frequency:     6.8775040225
  - # 10
    frequency:     7.1080596216
  - # 11
    frequency:     7.4849846798
  - # 12
    frequency:     7.9468355146

- q-position: [   -0.5937500,    0.2187500,    0.0312500 ]
  distance_from_gamma:  0.148689656
  weight: 8    
  band:
  - # 1
    frequency:     2.6625772751
  - # 2
    frequency:     2.7196688299
  - # 3
    frequency:     2.8109514159
  - # 4
    frequency:     2.8241057006
  - # 5
    frequency:     4.4222502510
  - # 6
    frequency:     4.5134239135
  - # 7
    frequency:     6.4513259267
  - # 8
    frequency:     6.7323647303
  - # 9
    frequency:     6.8410012887
  - # 10
    frequency:     7.1246943240
  - # 11
    frequency:     7.4946440432
  - # 12
    frequency:     7.9351092991

- q-position: [   -0.5312500,    0.2187500,    0.0312500 ]
  distance_from_gamma:  0.132227195
  weight: 8    
  band:
  - # 1
    frequency:     2.6028177852
  - # 2
    frequency:     2.6281820320
  - # 3
    frequency:     2.7722413895
  - # 4
    frequency:     2.8789052364
  - # 5
    frequency:     4.2564300459
  - # 6
    frequency:     4.5777293961
  - # 7
    frequency:     6.3610090463
  - # 8
    frequency:     6.6905476436
  - # 9
    frequency:     6.9155435280
  - # 10
    frequency:     7.0788369469
  - # 11
    frequency:     7.4727497464
  - # 12
    frequency:     7.9644725719

- q-position: [   -0.4687500,    0.2187500,    0.0312500 ]
  distance_from_gamma:  0.116177975
  weight: 8    
  band:
  - # 1
    frequency:     2.4674780302
  - # 2
    frequency:     2.4967074128
  - # 3
    frequency:     2.6964658593
  - # 4
    frequency:     2.9212127525
  - # 5
    frequency:     4.0255047483
  - # 6
    frequency:     4.5849153843
  - # 7
    frequency:     6.2181521411
  - # 8
    frequency:     6.6341476844
  - # 9
    frequency:     6.8742339050
  - # 10
    frequency:     7.0591416672
  - # 11
    frequency:     7.4694648079
  - # 12
    frequency:     7.9874925995

- q-position: [   -0.4062500,    0.2187500,    0.0312500 ]
  distance_from_gamma:  0.100739696