 vasp.6.4.3 19Mar24 (build Jul  1 2025 23:09:51) complex                         
 executed on             LinuxGNU date 2025.12.09  17:58:05
 running    1 mpi-ranks, with   12 threads/rank, on    1 nodes
 distrk:  each k-point on    1 cores,    1 groups
 distr:  one band on NCORE=   1 cores,    1 groups


--------------------------------------------------------------------------------------------------------


 INCAR:
   GGA = PE
   PREC = Accurate
   ENCUT = 520
   KSPACING = 0.3
   ISMEAR = 0
   SIGMA = 0.03
   EDIFF = 1e-6
   NELM = 120
   NELMIN = 8
   ISIF = 2
   IBRION = 1
   EDIFFG = -1e-2
   NSW = 200

 POTCAR:    PAW_PBE Si 05Jan2001                  
 POTCAR:    PAW_PBE O 08Apr2002                   
 POTCAR:    PAW_PBE Si 05Jan2001                  
   SHA256 =  79d9987ad8750f624c4d6acb2a16d13abf6a777132adc04dc6c8399be72b42bb Si/POTCAR             
   COPYR  = (c) Copyright 05Jan2001 Georg Kresse                                                    
   COPYR  = This file is part of the software VASP. Any use, copying, and all other rights are regul
   COPYR  = If you do not have a valid VASP license, you may not use, copy or distribute this file. 
   VRHFIN =Si: s2p2                                                                                 
   LEXCH  = PE                                                                                      
   EATOM  =   103.0669 eV,    7.5752 Ry                                                             
                                                                                                    
   TITEL  = PAW_PBE Si 05Jan2001                                                                    
   LULTRA =        F    use ultrasoft PP ?                                                          
   IUNSCR =        1    unscreen: 0-lin 1-nonlin 2-no                                               
   RPACOR =    1.500    partial core radius                                                         
   POMASS =   28.085; ZVAL   =    4.000    mass and valenz                                          
   RCORE  =    1.900    outmost cutoff radius                                                       
   RWIGS  =    2.480; RWIGS  =    1.312    wigner-seitz radius (au A)                               
   ENMAX  =  245.345; ENMIN  =  184.009 eV                                                          
   ICORE  =        2    local potential                                                             
   LCOR   =        T    correct aug charges                                                         
   LPAW   =        T    paw PP                                                                      
   EAUG   =  322.069                                                                                
   DEXC   =    0.000                                                                                
   RMAX   =    1.950    core radius for proj-oper                                                   
   RAUG   =    1.300    factor for augmentation sphere                                              
   RDEP   =    1.993    radius for radial grids                                                     
   RDEPT  =    1.837    core radius for aug-charge                                                  
                                                                                                    
   Atomic configuration                                                                             
    6 entries                                                                                       
     n  l   j            E        occ.                                                              
     1  0  0.50     -1785.8828   2.0000                                                             
     2  0  0.50      -139.4969   2.0000                                                             
     2  1  1.50       -95.5546   6.0000                                                             
     3  0  0.50       -10.8127   2.0000                                                             
     3  1  0.50        -4.0811   2.0000                                                             
     3  2  1.50        -4.0817   0.0000                                                             
   Description                                                                                      
     l       E           TYP  RCUT    TYP  RCUT                                                     
     0    -10.8127223     23  1.900                                                                 
     0     -7.6451159     23  1.900                                                                 
     1     -4.0811372     23  1.900                                                                 
     1      2.4879257     23  1.900                                                                 
     2     -4.0817478      7  1.900                                                                 
  local pseudopotential read in
  partial core-charges read in
  partial kinetic energy density read in
  atomic valenz-charges read in
  non local Contribution for L=           0  read in
    real space projection operators read in
  non local Contribution for L=           0  read in
    real space projection operators read in
  non local Contribution for L=           1  read in
    real space projection operators read in
  non local Contribution for L=           1  read in
    real space projection operators read in
    PAW grid and wavefunctions read in

   number of l-projection  operators is LMAX  =           4
   number of lm-projection operators is LMMAX =           8

 POTCAR:    PAW_PBE O 08Apr2002                   
   SHA256 =  818f92134a0a090dccd8ba1447fa70422a3b330e708bb4f08108d8ae51209ddf O/POTCAR              
   COPYR  = (c) Copyright 08Apr2002 Georg Kresse                                                    
   COPYR  = This file is part of the software VASP. Any use, copying, and all other rights are regul
   COPYR  = If you do not have a valid VASP license, you may not use, copy or distribute this file. 
   VRHFIN =O: s2p4                                                                                  
   LEXCH  = PE                                                                                      
   EATOM  =   432.3788 eV,   31.7789 Ry                                                             
                                                                                                    
   TITEL  = PAW_PBE O 08Apr2002                                                                     
   LULTRA =        F    use ultrasoft PP ?                                                          
   IUNSCR =        1    unscreen: 0-lin 1-nonlin 2-no                                               
   RPACOR =    1.200    partial core radius                                                         
   POMASS =   16.000; ZVAL   =    6.000    mass and valenz                                          
   RCORE  =    1.520    outmost cutoff radius                                                       
   RWIGS  =    1.550; RWIGS  =    0.820    wigner-seitz radius (au A)                               
   ENMAX  =  400.000; ENMIN  =  300.000 eV                                                          
   ICORE  =        2    local potential                                                             
   LCOR   =        T    correct aug charges                                                         
   LPAW   =        T    paw PP                                                                      
   EAUG   =  605.392                                                                                
   DEXC   =    0.000                                                                                
   RMAX   =    1.553    core radius for proj-oper                                                   
   RAUG   =    1.300    factor for augmentation sphere                                              
   RDEP   =    1.550    radius for radial grids                                                     
   RDEPT  =    1.329    core radius for aug-charge                                                  
                                                                                                    
   Atomic configuration                                                                             
    4 entries                                                                                       
     n  l   j            E        occ.                                                              
     1  0  0.50      -514.6923   2.0000                                                             
     2  0  0.50       -23.9615   2.0000                                                             
     2  1  0.50        -9.0305   4.0000                                                             
     3  2  1.50        -9.5241   0.0000                                                             
   Description                                                                                      
     l       E           TYP  RCUT    TYP  RCUT                                                     
     0    -23.9615318     23  1.200                                                                 
     0     -9.5240782     23  1.200                                                                 
     1     -9.0304911     23  1.520                                                                 
     1      8.1634956     23  1.520                                                                 
     2     -9.5240782      7  1.500                                                                 
  local pseudopotential read in
  partial core-charges read in
  partial kinetic energy density read in
  kinetic energy density of atom read in
  atomic valenz-charges read in
  non local Contribution for L=           0  read in
    real space projection operators read in
  non local Contribution for L=           0  read in
    real space projection operators read in
  non local Contribution for L=           1  read in
    real space projection operators read in
  non local Contribution for L=           1  read in
    real space projection operators read in
    PAW grid and wavefunctions read in

   number of l-projection  operators is LMAX  =           4
   number of lm-projection operators is LMMAX =           8

  PAW_PBE Si 05Jan2001                  :
 energy of atom  1       EATOM= -103.0669
 kinetic energy error for atom=    0.0005 (will be added to EATOM!!)
  PAW_PBE O 08Apr2002                   :
 energy of atom  2       EATOM= -432.3788
 kinetic energy error for atom=    0.0208 (will be added to EATOM!!)


 POSCAR: Si3 O6
  positions in direct lattice
  No initial velocities read in


 exchange-correlation table for PE
   RHO(1)=    0.500       N(1)  =     2000
   RHO(2)=  100.500       N(2)  =     4000



--------------------------------------------------------------------------------------------------------


 ion  position               nearest neighbor table
   1  0.000  0.469  0.333-   6 1.61   9 1.61   4 1.62   8 1.62   3 3.06   3 3.06   2 3.06   2 3.06

   2  0.531  0.531  0.000-   5 1.61   8 1.61   7 1.62   6 1.62   1 3.06   3 3.06   1 3.06   3 3.06

   3  0.469  0.000  0.667-   7 1.61   4 1.61   5 1.62   9 1.62   1 3.06   1 3.06   2 3.06   2 3.06

   4  0.145  0.731  0.548-   3 1.61   1 1.62
   5  0.587  0.855  0.881-   2 1.61   3 1.62
   6  0.269  0.413  0.214-   1 1.61   2 1.62
   7  0.413  0.269  0.786-   3 1.61   2 1.62
   8  0.855  0.587  0.119-   2 1.61   1 1.62
   9  0.731  0.145  0.452-   1 1.61   3 1.62

  LATTYP: Found a hexagonal cell.
 ALAT       =     4.9165578074
 C/A-ratio  =     1.1047617994
  
  Lattice vectors:
  
 A1 = (   2.4582789037,  -4.2578639604,   0.0000000000)
 A2 = (   2.4582789037,   4.2578639604,   0.0000000000)
 A3 = (   0.0000000000,   0.0000000000,   5.4316252501)


Analysis of symmetry for initial positions (statically):
=====================================================================
 Subroutine PRICEL returns:
 Original cell was already a primitive cell.
 

 Routine SETGRP: Setting up the symmetry group for a 
 hexagonal supercell.


 Subroutine GETGRP returns: Found  6 space group operations
 (whereof  2 operations were pure point group operations)
 out of a pool of 24 trial point group operations.


The static configuration has the point symmetry C_2 .
 The point group associated with its full space group is D_3 .


Analysis of symmetry for dynamics (positions and initial velocities):
=====================================================================
 Subroutine PRICEL returns:
 Original cell was already a primitive cell.
 

 Routine SETGRP: Setting up the symmetry group for a 
 hexagonal supercell.


 Subroutine GETGRP returns: Found  6 space group operations
 (whereof  2 operations were pure point group operations)
 out of a pool of 24 trial point group operations.


The dynamic configuration has the point symmetry C_2 .
 The point group associated with its full space group is D_3 .


 Subroutine INISYM returns: Found  6 space group operations
 (whereof  2 operations are pure point group operations),
 and found     1 'primitive' translations


----------------------------------------------------------------------------------------

                                     Primitive cell                                     

  volume of cell :     113.7058

  direct lattice vectors                    reciprocal lattice vectors
     2.458278904 -4.257863960  0.000000000     0.203394334 -0.117429773  0.000000000
     2.458278904  4.257863960  0.000000000     0.203394334  0.117429773 -0.000000000
     0.000000000  0.000000000  5.431625250    -0.000000000  0.000000000  0.184106958

  length of vectors
     4.916557807  4.916557807  5.431625250     0.234859547  0.234859547  0.184106958

  position of ions in fractional coordinates (direct lattice)
     1.000000000  0.468798230  0.333333333
     0.531201770  0.531201770  0.000000000
     0.468798230  1.000000000  0.666666667
     0.144538360  0.731439790  0.547819600
     0.586901430  0.855461640  0.881152933
     0.268560210  0.413098570  0.214486267
     0.413098570  0.268560210  0.785513733
     0.855461640  0.586901430  0.118847067
     0.731439790  0.144538360  0.452180400

  ion indices of the primitive-cell ions
   primitive index   ion index
                 1           1
                 2           2
                 3           3
                 4           4
                 5           5
                 6           6
                 7           7
                 8           8
                 9           9

----------------------------------------------------------------------------------------


 -----------------------------------------------------------------------------
|                                                                             |
|           W    W    AA    RRRRR   N    N  II  N    N   GGGG   !!!           |
|           W    W   A  A   R    R  NN   N  II  NN   N  G    G  !!!           |
|           W    W  A    A  R    R  N N  N  II  N N  N  G       !!!           |
|           W WW W  AAAAAA  RRRRR   N  N N  II  N  N N  G  GGG   !            |
|           WW  WW  A    A  R   R   N   NN  II  N   NN  G    G                |
|           W    W  A    A  R    R  N    N  II  N    N   GGGG   !!!           |
|                                                                             |
|     The requested file  could not be found or opened for reading            |
|     k-point information. Automatic k-point generation is used as a          |
|     fallback, which may lead to unwanted results.                           |
|                                                                             |
 -----------------------------------------------------------------------------



Automatic generation of k-mesh.
 Grid dimensions derived from KSPACING:
 generate k-points for:    5    5    4

 Generating k-lattice:

  Cartesian coordinates                     Fractional coordinates (reciprocal lattice)
     0.040678867 -0.023485955  0.000000000     0.200000000  0.000000000  0.000000000
     0.040678867  0.023485955 -0.000000000     0.000000000  0.200000000  0.000000000
    -0.000000000  0.000000000  0.046026739     0.000000000  0.000000000  0.250000000

  Length of vectors
     0.046971909  0.046971909  0.046026739

  Shift w.r.t. Gamma in fractional coordinates (k-lattice)
     0.000000000  0.000000000  0.000000000

 
 Subroutine IBZKPT returns following result:
 ===========================================
 
 Found     17 irreducible k-points:
 
 Following reciprocal coordinates:
            Coordinates               Weight
  0.000000  0.000000  0.000000      1.000000
  0.200000  0.000000  0.000000      6.000000
  0.400000  0.000000  0.000000      6.000000
  0.200000  0.200000  0.000000      6.000000
  0.400000  0.200000  0.000000      6.000000
  0.000000  0.000000  0.250000      2.000000
  0.200000  0.000000  0.250000      6.000000
  0.000000  0.200000  0.250000      6.000000
  0.400000  0.000000  0.250000      6.000000
  0.000000  0.400000  0.250000      6.000000
  0.200000  0.200000  0.250000     12.000000
  0.400000  0.200000  0.250000     12.000000
  0.000000  0.000000  0.500000      1.000000
  0.200000  0.000000  0.500000      6.000000
  0.400000  0.000000  0.500000      6.000000
  0.200000  0.200000  0.500000      6.000000
  0.400000  0.200000  0.500000      6.000000
 
 Following cartesian coordinates:
            Coordinates               Weight
  0.000000 -0.000000  0.000000      1.000000
  0.040679 -0.023486  0.000000      6.000000
  0.081358 -0.046972  0.000000      6.000000
  0.081358  0.000000  0.000000      6.000000
  0.122037 -0.023486  0.000000      6.000000
  0.000000 -0.000000  0.046027      2.000000
  0.040679 -0.023486  0.046027      6.000000
  0.040679  0.023486  0.046027      6.000000
  0.081358 -0.046972  0.046027      6.000000
  0.081358  0.046972  0.046027      6.000000
  0.081358  0.000000  0.046027     12.000000
  0.122037 -0.023486  0.046027     12.000000
  0.000000 -0.000000  0.092053      1.000000
  0.040679 -0.023486  0.092053      6.000000
  0.081358 -0.046972  0.092053      6.000000
  0.081358  0.000000  0.092053      6.000000
  0.122037 -0.023486  0.092053      6.000000
 


--------------------------------------------------------------------------------------------------------




 Dimension of arrays:
   k-points           NKPTS =     17   k-points in BZ     NKDIM =     17   number of bands    NBANDS=     29
   number of dos      NEDOS =    301   number of ions     NIONS =      9
   non local maximal  LDIM  =      4   non local SUM 2l+1 LMDIM =      8
   total plane-waves  NPLWV =  64000
   max r-space proj   IRMAX =      1   max aug-charges    IRDMAX=  19016
   dimension x,y,z NGX =    40 NGY =   40 NGZ =   40
   dimension x,y,z NGXF=    80 NGYF=   80 NGZF=   80
   support grid    NGXF=    80 NGYF=   80 NGZF=   80
   ions per type =               3   6
   NGX,Y,Z   is equivalent  to a cutoff of  13.53, 13.53, 12.24 a.u.
   NGXF,Y,Z  is equivalent  to a cutoff of  27.05, 27.05, 24.49 a.u.

 SYSTEM =  unknown system                          
 POSCAR =  Si3 O6                                  

 Startparameter for this run:
   NWRITE =      2    write-flag & timer
   PREC   = accura    normal or accurate (medium, high low for compatibility)
   ISTART =      1    job   : 0-new  1-cont  2-samecut
   ICHARG =      0    charge: 1-file 2-atom 10-const
   ISPIN  =      1    spin polarized calculation?
   LNONCOLLINEAR =      F non collinear calculations
   LSORBIT =      F    spin-orbit coupling
   INIWAV =      1    electr: 0-lowe 1-rand  2-diag
   LASPH  =      F    aspherical Exc in radial PAW
 Electronic Relaxation 1
   ENCUT  =  520.0 eV  38.22 Ry    6.18 a.u.   9.14  9.14 10.10*2*pi/ulx,y,z
   ENINI  =  520.0     initial cutoff
   ENAUG  =  605.4 eV  augmentation charge cutoff
   NELM   =    120;   NELMIN=  8; NELMDL=  0     # of ELM steps 
   EDIFF  = 0.1E-05   stopping-criterion for ELM
   LREAL  =      F    real-space projection
   NLSPLINE    = F    spline interpolate recip. space projectors
   LCOMPAT=      F    compatible to vasp.4.4
   GGA_COMPAT  = T    GGA compatible to vasp.4.4-vasp.4.6
   LMAXPAW     = -100 max onsite density
   LMAXMIX     =    2 max onsite mixed and CHGCAR
   VOSKOWN=      0    Vosko Wilk Nusair interpolation
   ROPT   =    0.00000   0.00000
 Ionic relaxation
   EDIFFG = -.1E-01   stopping-criterion for IOM
   NSW    =    200    number of steps for IOM
   NBLOCK =      1;   KBLOCK =    200    inner block; outer block 
   IBRION =      1    ionic relax: 0-MD 1-quasi-New 2-CG
   NFREE  =      0    steps in history (QN), initial steepest desc. (CG)
   ISIF   =      2    stress and relaxation
   IWAVPR =     11    prediction:  0-non 1-charg 2-wave 3-comb
   ISYM   =      2    0-nonsym 1-usesym 2-fastsym
   LCORR  =      T    Harris-Foulkes like correction to forces

   POTIM  = 0.5000    time-step for ionic-motion
   TEIN   =    0.0    initial temperature
   TEBEG  =    0.0;   TEEND  =   0.0 temperature during run
   SMASS  =  -3.00    Nose mass-parameter (am)
   estimated Nose-frequenzy (Omega)   =  0.10E-29 period in steps = 0.13E+47 mass=  -0.552E-27a.u.
   SCALEE = 1.0000    scale energy and forces
   NPACO  =    256;   APACO  = 10.0  distance and # of slots for P.C.
   PSTRESS=    0.0 pullay stress

  Mass of Ions in am
   POMASS =  28.09 16.00
  Ionic Valenz
   ZVAL   =   4.00  6.00
  Atomic Wigner-Seitz radii
   RWIGS  =  -1.00 -1.00
  virtual crystal weights 
   VCA    =   1.00  1.00
   NELECT =      48.0000    total number of electrons
   NUPDOWN=      -1.0000    fix difference up-down

 DOS related values:
   EMIN   =  10.00;   EMAX   =-10.00  energy-range for DOS
   EFERMI =   0.00;   METHOD = LEGACY      
   ISMEAR =     0;   SIGMA  =   0.03  broadening in eV -4-tet -1-fermi 0-gaus

 Electronic relaxation 2 (details)
   IALGO  =     38    algorithm
   LDIAG  =      T    sub-space diagonalisation (order eigenvalues)
   LSUBROT=      F    optimize rotation matrix (better conditioning)
   TURBO    =      0    0=normal 1=particle mesh
   IRESTART =      0    0=no restart 2=restart with 2 vectors
   NREBOOT  =      0    no. of reboots
   NMIN     =      0    reboot dimension
   EREF     =   0.00    reference energy to select bands
   IMIX   =      4    mixing-type and parameters
     AMIX     =   0.40;   BMIX     =  1.00
     AMIX_MAG =   1.60;   BMIX_MAG =  1.00
     AMIN     =   0.10
     WC   =   100.;   INIMIX=   1;  MIXPRE=   1;  MAXMIX= -45

 Intra band minimization:
   WEIMIN = 0.0010     energy-eigenvalue tresh-hold
   EBREAK =  0.86E-08  absolut break condition
   DEPER  =   0.30     relativ break condition  

   TIME   =   0.40     timestep for ELM

  volume/ion in A,a.u.               =      12.63        85.26
  Fermi-wavevector in a.u.,A,eV,Ry     =   1.228083  2.320740 20.520137  1.508187
  Thomas-Fermi vector in A             =   2.363022

 Write flags
   LWAVE        =      T    write WAVECAR
   LDOWNSAMPLE  =      F    k-point downsampling of WAVECAR
   LCHARG       =      T    write CHGCAR
   LVTOT        =      F    write LOCPOT, total local potential
   LVHAR        =      F    write LOCPOT, Hartree potential only
   WRT_POTENTIAL= false  ! write potential to hdf5 file
   LELF         =      F    write electronic localiz. function (ELF)
   LORBIT       =      0    0 simple, 1 ext, 2 COOP (PROOUT), +10 PAW based schemes


 Dipole corrections
   LMONO      =      F    monopole corrections only (constant potential shift)
   LDIPOL     =      F    correct potential (dipole corrections)
   IDIPOL     =      0    1-x, 2-y, 3-z, 4-all directions 
   EPSILON    =  1.0000000 bulk dielectric constant
   LVACPOTAV  =      F  vacuum potentials using an averaging scheme for the charge density
   VACPOTFLAT =  0.1000000 required flatness to determine vacuum potential
 Exchange correlation treatment:
   GGA     = PE    functional components
   XC_C    = 1    coefficients multiplying the functional components
   LIBXC   =     F    Libxc                    
   VOSKOWN =     0    Vosko Wilk Nusair interpolation
   LHFCALC =     F    Hartree Fock is set to
   LHFONE  =     F    Hartree Fock one center treatment
   AEXX    =    0.0000 exact exchange contribution

 Parameters of functionals:
   PE:
     No parameter

 Van der Waals corrections
   IVDW    =     0    specifies the selected vdW correction

 Linear response parameters
   LEPSILON=     F    determine dielectric tensor
   LRPA    =     F    only Hartree local field effects (RPA)
   LNABLA  =     F    use nabla operator in PAW spheres
   LVEL    =     F    velocity operator in full k-point grid
   CSHIFT  =0.1000    complex shift for real part using Kramers Kronig
   OMEGAMAX=  -1.0    maximum frequency
   DEG_THRESHOLD= 0.2000000E-02 threshold for treating states as degnerate
   RTIME   =   -0.100 relaxation time in fs
  (WPLASMAI=    0.000 imaginary part of plasma frequency in eV, 0.658/RTIME)
   DFIELD  = 0.0000000 0.0000000 0.0000000 field for delta impulse in time

  Optional k-point grid parameters
   LKPOINTS_OPT  =     F    use optional k-point grid
   KPOINTS_OPT_MODE=     1    mode for optional k-point grid

 Orbital magnetization related:
   ORBITALMAG=     F  switch on orbital magnetization
   LCHIMAG   =     F  perturbation theory with respect to B field
   DQ        =  0.001000  dq finite difference perturbation B field
   LLRAUG    =     F  two centre corrections for induced B field
   LBONE     =     F  B-component reconstruction in AE one-centre
   LVGVCALC  =     T  calculate vGv susceptibility
   LVGVAPPL  =     F  apply vGv susceptibility instead of pGv for G=0

 Random number generation:
   RANDOM_GENERATOR = DEFAULT
   PCG_SEED         = not used


--------------------------------------------------------------------------------------------------------


 quasi-Newton-method for relaxation of ions
 charge density and potential will be updated during run
 non-spin polarized calculation
 Variant of blocked Davidson
 Davidson routine will perform the subspace rotation
 perform sub-space diagonalisation
    after iterative eigenvector-optimisation
 modified Broyden-mixing scheme, WC =      100.0
 initial mixing is a Kerker type mixing with AMIX =  0.4000 and BMIX =      1.0000
 Hartree-type preconditioning will be used
 using additional bands            5
 reciprocal scheme for non local part
 use partial core corrections
 calculate Harris-corrections to forces   (improved forces if not selfconsistent)
 use gradient corrections 
 use of overlap-Matrix (Vanderbilt PP)
 Gauss-broadening in eV      SIGMA  =   0.03


--------------------------------------------------------------------------------------------------------


  energy-cutoff  :      520.00
  volume of cell :      113.71
      direct lattice vectors                 reciprocal lattice vectors
     2.458278904 -4.257863960  0.000000000     0.203394334 -0.117429773  0.000000000
     2.458278904  4.257863960  0.000000000     0.203394334  0.117429773 -0.000000000
     0.000000000  0.000000000  5.431625250    -0.000000000  0.000000000  0.184106958

  length of vectors
     4.916557807  4.916557807  5.431625250     0.234859547  0.234859547  0.184106958



 old parameters found on file WAVECAR:
  energy-cutoff  :      520.00
  volume of cell :      113.71
      direct lattice vectors                 reciprocal lattice vectors
     2.458278904 -4.257863960  0.000000000     0.203394334 -0.117429773  0.000000000
     2.458278904  4.257863960  0.000000000     0.203394334  0.117429773 -0.000000000
     0.000000000  0.000000000  5.431625250    -0.000000000  0.000000000  0.184106958

  length of vectors


 k-points in units of 2pi/SCALE and weight: read from INCAR                         
   0.00000000  0.00000000  0.00000000       0.010
   0.04067887 -0.02348595  0.00000000       0.060
   0.08135773 -0.04697191  0.00000000       0.060
   0.08135773 -0.00000000  0.00000000       0.060
   0.12203660 -0.02348595  0.00000000       0.060
   0.00000000  0.00000000  0.04602674       0.020
   0.04067887 -0.02348595  0.04602674       0.060
   0.04067887  0.02348595  0.04602674       0.060
   0.08135773 -0.04697191  0.04602674       0.060
   0.08135773  0.04697191  0.04602674       0.060
   0.08135773 -0.00000000  0.04602674       0.120
   0.12203660 -0.02348595  0.04602674       0.120
   0.00000000  0.00000000  0.09205348       0.010
   0.04067887 -0.02348595  0.09205348       0.060
   0.08135773 -0.04697191  0.09205348       0.060
   0.08135773 -0.00000000  0.09205348       0.060
   0.12203660 -0.02348595  0.09205348       0.060

 k-points in reciprocal lattice and weights: read from INCAR                         
   0.00000000  0.00000000  0.00000000       0.010
   0.20000000  0.00000000  0.00000000       0.060
   0.40000000  0.00000000  0.00000000       0.060
   0.20000000  0.20000000  0.00000000       0.060
   0.40000000  0.20000000  0.00000000       0.060
   0.00000000  0.00000000  0.25000000       0.020
   0.20000000  0.00000000  0.25000000       0.060
   0.00000000  0.20000000  0.25000000       0.060
   0.40000000  0.00000000  0.25000000       0.060
   0.00000000  0.40000000  0.25000000       0.060
   0.20000000  0.20000000  0.25000000       0.120
   0.40000000  0.20000000  0.25000000       0.120
   0.00000000  0.00000000  0.50000000       0.010
   0.20000000  0.00000000  0.50000000       0.060
   0.40000000  0.00000000  0.50000000       0.060
   0.20000000  0.20000000  0.50000000       0.060
   0.40000000  0.20000000  0.50000000       0.060

 position of ions in fractional coordinates (direct lattice) 
   0.00000000  0.46879823  0.33333333
   0.53120177  0.53120177  0.00000000
   0.46879823  0.00000000  0.66666667
   0.14453836  0.73143979  0.54781960
   0.58690143  0.85546164  0.88115293
   0.26856021  0.41309857  0.21448627
   0.41309857  0.26856021  0.78551373
   0.85546164  0.58690143  0.11884707
   0.73143979  0.14453836  0.45218040

 position of ions in cartesian coordinates  (Angst):
   1.15243680  1.99607909  1.81054175
   2.61168421  0.00000000  0.00000000
   1.15243680 -1.99607909  3.62108350
   2.15339861  2.49894645  2.97555077
   3.54573071  1.14349284  4.78609252
   1.67570740  0.61542467  1.16500902
   1.67570740 -0.61542467  4.26661623
   3.54573071 -1.14349284  0.64553273
   2.15339861 -2.49894645  2.45607448



--------------------------------------------------------------------------------------------------------


 k-point     1 :   0.0000 0.0000 0.0000  plane waves:    3051
 k-point     2 :   0.2000 0.0000 0.0000  plane waves:    3060
 k-point     3 :   0.4000 0.0000 0.0000  plane waves:    3044
 k-point     4 :   0.2000 0.2000 0.0000  plane waves:    3057
 k-point     5 :   0.4000 0.2000 0.0000  plane waves:    3049
 k-point     6 :   0.0000 0.0000 0.2500  plane waves:    3014
 k-point     7 :   0.2000 0.0000 0.2500  plane waves:    3058
 k-point     8 :   0.0000 0.2000 0.2500  plane waves:    3058
 k-point     9 :   0.4000 0.0000 0.2500  plane waves:    3074
 k-point    10 :   0.0000 0.4000 0.2500  plane waves:    3074
 k-point    11 :   0.2000 0.2000 0.2500  plane waves:    3059
 k-point    12 :   0.4000 0.2000 0.2500  plane waves:    3060
 k-point    13 :   0.0000 0.0000 0.5000  plane waves:    3068
 k-point    14 :   0.2000 0.0000 0.5000  plane waves:    3052
 k-point    15 :   0.4000 0.0000 0.5000  plane waves:    3074
 k-point    16 :   0.2000 0.2000 0.5000  plane waves:    3054
 k-point    17 :   0.4000 0.2000 0.5000  plane waves:    3072

 maximum and minimum number of plane-waves per node :      3074     3014

 maximum number of plane-waves:      3074
 maximum index in each direction: 
   IXMAX=    9   IYMAX=    9   IZMAX=   10
   IXMIN=   -9   IYMIN=   -9   IZMIN=  -10


 serial   3D FFT for wavefunctions
 parallel 3D FFT for charge:
    minimum data exchange during FFTs selected (reduces bandwidth)


 total amount of memory used by VASP MPI-rank0   111606. kBytes
=======================================================================

   base      :      30000. kBytes
   nonl-proj :       7131. kBytes
   fftplans  :      17864. kBytes
   grid      :      31769. kBytes
   one-center:         27. kBytes
   wavefun   :      24815. kBytes

     INWAV:  cpu time      0.0068: real time      0.0081
 Broyden mixing: mesh for mixing (old mesh)
   NGX = 19   NGY = 19   NGZ = 21
  (NGX  = 80   NGY  = 80   NGZ  = 80)
  gives a total of   7581 points

 charge density for first step will be calculated from the start-wavefunctions


--------------------------------------------------------------------------------------------------------


 Maximum index for augmentation-charges        18266 (set IRDMAX)


--------------------------------------------------------------------------------------------------------


 initial charge from wavefunction
 First call to EWALD:  gamma=   0.366
 Maximum number of real-space cells 3x 3x 3
 Maximum number of reciprocal cells 3x 3x 3

    FEWALD:  cpu time      0.0501: real time      0.0155


--------------------------------------- Ionic step        1  -------------------------------------------




--------------------------------------- Iteration      1(   1)  ---------------------------------------


    POTLOK:  cpu time      0.1339: real time      0.0383
    SETDIJ:  cpu time      0.0078: real time      0.0025
     EDDAV:  cpu time      9.1829: real time      3.3326
       DOS:  cpu time      0.0002: real time      0.0011
    CHARGE:  cpu time      0.8566: real time      0.3892
    MIXING:  cpu time      0.0038: real time      0.0016
    --------------------------------------------
      LOOP:  cpu time     10.1852: real time      3.7653

 eigenvalue-minimisations  :   493
 total energy-change (2. order) :-0.7105409E+02  (-0.1278200E-11)
 number of electron      48.0000003 magnetization 
 augmentation part        3.5532844 magnetization 

 Broyden mixing:
  rms(total) = 0.30199E-06    rms(broyden)= 0.30191E-06
  rms(prec ) = 0.51370E-06
  weight for this iteration     100.00

 Free energy of the ion-electron system (eV)
  ---------------------------------------------------
  alpha Z        PSCENC =        69.31646906
  Ewald energy   TEWEN  =     -1890.11586297
  -Hartree energ DENC   =     -1067.48367966
  -exchange      EXHF   =         0.00000000
  -V(xc)+E(xc)   XCENC  =       150.52691162
  PAW double counting   =      7961.74347016    -7922.11679600
  entropy T*S    EENTRO =        -0.00000000
  eigenvalues    EBANDS =      -276.27157513
  atomic energy  EATOM  =      2903.34697324
  Solvation  Ediel_sol  =         0.00000000
  ---------------------------------------------------
  free energy    TOTEN  =       -71.05408968 eV

  energy without entropy =      -71.05408968  energy(sigma->0) =      -71.05408968


--------------------------------------------------------------------------------------------------------




--------------------------------------- Iteration      1(   2)  ---------------------------------------


    POTLOK:  cpu time      0.1516: real time      0.0364
    SETDIJ:  cpu time      0.0091: real time      0.0017
     EDDAV:  cpu time      9.4782: real time      3.3226
       DOS:  cpu time      0.0001: real time      0.0001
    CHARGE:  cpu time      0.8634: real time      0.3926
    MIXING:  cpu time      0.0039: real time      0.0025
    --------------------------------------------
      LOOP:  cpu time     10.5063: real time      3.7559

 eigenvalue-minimisations  :   493
 total energy-change (2. order) :-0.8276402E-10  (-0.1648466E-12)
 number of electron      48.0000003 magnetization 
 augmentation part        3.5532844 magnetization 

 Broyden mixing:
  rms(total) = 0.17405E-06    rms(broyden)= 0.17405E-06
  rms(prec ) = 0.28339E-06
  weight for this iteration     100.00

 eigenvalues of (default mixing * dielectric matrix)
  average eigenvalue GAMMA=   1.8548
  1.8548

 Free energy of the ion-electron system (eV)
  ---------------------------------------------------
  alpha Z        PSCENC =        69.31646906
  Ewald energy   TEWEN  =     -1890.11586297
  -Hartree energ DENC   =     -1067.48366419
  -exchange      EXHF   =         0.00000000
  -V(xc)+E(xc)   XCENC  =       150.52691060
  PAW double counting   =      7961.74353039    -7922.11685593
  entropy T*S    EENTRO =        -0.00000000
  eigenvalues    EBANDS =      -276.27158986
  atomic energy  EATOM  =      2903.34697324
  Solvation  Ediel_sol  =         0.00000000
  ---------------------------------------------------
  free energy    TOTEN  =       -71.05408968 eV

  energy without entropy =      -71.05408968  energy(sigma->0) =      -71.05408968


--------------------------------------------------------------------------------------------------------




--------------------------------------- Iteration      1(   3)  ---------------------------------------


    POTLOK:  cpu time      0.1398: real time      0.0348
    SETDIJ:  cpu time      0.0077: real time      0.0015
     EDDAV:  cpu time      8.9453: real time      3.2941
       DOS:  cpu time      0.0001: real time      0.0001
    CHARGE:  cpu time      0.8558: real time      0.3874
    MIXING:  cpu time      0.0039: real time      0.0015
    --------------------------------------------
      LOOP:  cpu time      9.9526: real time      3.7194

 eigenvalue-minimisations  :   493
 total energy-change (2. order) : 0.3274181E-10  (-0.2848457E-12)
 number of electron      48.0000003 magnetization 
 augmentation part        3.5532845 magnetization 

 Broyden mixing:
  rms(total) = 0.14554E-06    rms(broyden)= 0.14548E-06
  rms(prec ) = 0.23778E-06
  weight for this iteration     100.00

 eigenvalues of (default mixing * dielectric matrix)
  average eigenvalue GAMMA=   1.3249
  1.3249  1.3249

 Free energy of the ion-electron system (eV)
  ---------------------------------------------------
  alpha Z        PSCENC =        69.31646906
  Ewald energy   TEWEN  =     -1890.11586297
  -Hartree energ DENC   =     -1067.48364758
  -exchange      EXHF   =         0.00000000
  -V(xc)+E(xc)   XCENC  =       150.52690948
  PAW double counting   =      7961.74343551    -7922.11676075
  entropy T*S    EENTRO =        -0.00000000
  eigenvalues    EBANDS =      -276.27160565
  atomic energy  EATOM  =      2903.34697324
  Solvation  Ediel_sol  =         0.00000000
  ---------------------------------------------------
  free energy    TOTEN  =       -71.05408968 eV

  energy without entropy =      -71.05408968  energy(sigma->0) =      -71.05408968


--------------------------------------------------------------------------------------------------------




--------------------------------------- Iteration      1(   4)  ---------------------------------------


    POTLOK:  cpu time      0.1426: real time      0.0349
    SETDIJ:  cpu time      0.0074: real time      0.0015
     EDDAV:  cpu time      9.0378: real time      3.2567
       DOS:  cpu time      0.0001: real time      0.0001
    CHARGE:  cpu time      0.8553: real time      0.3872
    MIXING:  cpu time      0.0036: real time      0.0014
    --------------------------------------------
      LOOP:  cpu time     10.0468: real time      3.6819

 eigenvalue-minimisations  :   493
 total energy-change (2. order) : 0.7275958E-10  (-0.1156623E-12)
 number of electron      48.0000003 magnetization 
 augmentation part        3.5532845 magnetization 

 Broyden mixing:
  rms(total) = 0.65121E-07    rms(broyden)= 0.65100E-07
  rms(prec ) = 0.10651E-06
  weight for this iteration     100.00

 eigenvalues of (default mixing * dielectric matrix)
  average eigenvalue GAMMA=   0.9761
  1.3683  1.3683  0.1919

 Free energy of the ion-electron system (eV)
  ---------------------------------------------------
  alpha Z        PSCENC =        69.31646906
  Ewald energy   TEWEN  =     -1890.11586297
  -Hartree energ DENC   =     -1067.48366005
  -exchange      EXHF   =         0.00000000
  -V(xc)+E(xc)   XCENC  =       150.52691031
  PAW double counting   =      7961.74341182    -7922.11673732
  entropy T*S    EENTRO =        -0.00000000
  eigenvalues    EBANDS =      -276.27159376
  atomic energy  EATOM  =      2903.34697324
  Solvation  Ediel_sol  =         0.00000000
  ---------------------------------------------------
  free energy    TOTEN  =       -71.05408968 eV

  energy without entropy =      -71.05408968  energy(sigma->0) =      -71.05408968


--------------------------------------------------------------------------------------------------------




--------------------------------------- Iteration      1(   5)  ---------------------------------------


    POTLOK:  cpu time      0.1429: real time      0.0351
    SETDIJ:  cpu time      0.0074: real time      0.0014
     EDDAV:  cpu time      8.0946: real time      3.1585
       DOS:  cpu time      0.0001: real time      0.0001
    CHARGE:  cpu time      0.8590: real time      0.3886
    MIXING:  cpu time      0.0037: real time      0.0015
    --------------------------------------------
      LOOP:  cpu time      9.1076: real time      3.5852

 eigenvalue-minimisations  :   493
 total energy-change (2. order) : 0.1000444E-09  (-0.8693503E-13)
 number of electron      48.0000003 magnetization 
 augmentation part        3.5532845 magnetization 

 Broyden mixing:
  rms(total) = 0.44153E-07    rms(broyden)= 0.44152E-07
  rms(prec ) = 0.69083E-07
  weight for this iteration     100.00

 eigenvalues of (default mixing * dielectric matrix)
  average eigenvalue GAMMA=   1.4019
  2.0314  2.0314  0.7724  0.7724

 Free energy of the ion-electron system (eV)
  ---------------------------------------------------
  alpha Z        PSCENC =        69.31646906
  Ewald energy   TEWEN  =     -1890.11586297
  -Hartree energ DENC   =     -1067.48365770
  -exchange      EXHF   =         0.00000000
  -V(xc)+E(xc)   XCENC  =       150.52691015
  PAW double counting   =      7961.74340315    -7922.11672861
  entropy T*S    EENTRO =        -0.00000000
  eigenvalues    EBANDS =      -276.27159599
  atomic energy  EATOM  =      2903.34697324
  Solvation  Ediel_sol  =         0.00000000
  ---------------------------------------------------
  free energy    TOTEN  =       -71.05408968 eV

  energy without entropy =      -71.05408968  energy(sigma->0) =      -71.05408968


--------------------------------------------------------------------------------------------------------




--------------------------------------- Iteration      1(   6)  ---------------------------------------


    POTLOK:  cpu time      0.1396: real time      0.0349
    SETDIJ:  cpu time      0.0071: real time      0.0014
     EDDAV:  cpu time      8.5473: real time      3.2029
       DOS:  cpu time      0.0001: real time      0.0001
    CHARGE:  cpu time      0.8586: real time      0.3880
    MIXING:  cpu time      0.0038: real time      0.0015
    --------------------------------------------
      LOOP:  cpu time      9.5565: real time      3.6288

 eigenvalue-minimisations  :   493
 total energy-change (2. order) :-0.7548806E-10  (-0.2979291E-13)
 number of electron      48.0000003 magnetization 
 augmentation part        3.5532845 magnetization 

 Broyden mixing:
  rms(total) = 0.28309E-07    rms(broyden)= 0.28308E-07
  rms(prec ) = 0.46895E-07
  weight for this iteration     100.00

 eigenvalues of (default mixing * dielectric matrix)
  average eigenvalue GAMMA=   1.4475
  2.7386  0.8969  0.8969  1.3526  1.3526

 Free energy of the ion-electron system (eV)
  ---------------------------------------------------
  alpha Z        PSCENC =        69.31646906
  Ewald energy   TEWEN  =     -1890.11586297
  -Hartree energ DENC   =     -1067.48365694
  -exchange      EXHF   =         0.00000000
  -V(xc)+E(xc)   XCENC  =       150.52691010
  PAW double counting   =      7961.74335779    -7922.11668325
  entropy T*S    EENTRO =        -0.00000000
  eigenvalues    EBANDS =      -276.27159670
  atomic energy  EATOM  =      2903.34697324
  Solvation  Ediel_sol  =         0.00000000
  ---------------------------------------------------
  free energy    TOTEN  =       -71.05408968 eV

  energy without entropy =      -71.05408968  energy(sigma->0) =      -71.05408968


--------------------------------------------------------------------------------------------------------




--------------------------------------- Iteration      1(   7)  ---------------------------------------


    POTLOK:  cpu time      0.1443: real time      0.0346
    SETDIJ:  cpu time      0.0072: real time      0.0014
     EDDAV:  cpu time      8.4152: real time      3.1949
       DOS:  cpu time      0.0001: real time      0.0001
    CHARGE:  cpu time      0.8548: real time      0.3875
    MIXING:  cpu time      0.0039: real time      0.0016
    --------------------------------------------
      LOOP:  cpu time      9.4256: real time      3.6200

 eigenvalue-minimisations  :   493
 total energy-change (2. order) :-0.8185452E-10  ( 0.7731921E-13)
 number of electron      48.0000003 magnetization 
 augmentation part        3.5532845 magnetization 

 Broyden mixing:
  rms(total) = 0.35752E-08    rms(broyden)= 0.35507E-08
  rms(prec ) = 0.50446E-08
  weight for this iteration     100.00

 eigenvalues of (default mixing * dielectric matrix)
  average eigenvalue GAMMA=   1.5325
  3.0767  1.8723  1.8499  0.8360  0.8360  0.7239

 Free energy of the ion-electron system (eV)
  ---------------------------------------------------
  alpha Z        PSCENC =        69.31646906
  Ewald energy   TEWEN  =     -1890.11586297
  -Hartree energ DENC   =     -1067.48365536
  -exchange      EXHF   =         0.00000000
  -V(xc)+E(xc)   XCENC  =       150.52690999
  PAW double counting   =      7961.74333548    -7922.11666091
  entropy T*S    EENTRO =        -0.00000000
  eigenvalues    EBANDS =      -276.27159821
  atomic energy  EATOM  =      2903.34697324
  Solvation  Ediel_sol  =         0.00000000
  ---------------------------------------------------
  free energy    TOTEN  =       -71.05408968 eV

  energy without entropy =      -71.05408968  energy(sigma->0) =      -71.05408968


--------------------------------------------------------------------------------------------------------




--------------------------------------- Iteration      1(   8)  ---------------------------------------


    POTLOK:  cpu time      0.1456: real time      0.0353
    SETDIJ:  cpu time      0.0080: real time      0.0014
     EDDAV:  cpu time      8.7148: real time      3.2183
       DOS:  cpu time      0.0001: real time      0.0001
    --------------------------------------------
      LOOP:  cpu time      8.8685: real time      3.2551

 eigenvalue-minimisations  :   493
 total energy-change (2. order) : 0.7366907E-10  (-0.1235428E-13)
 number of electron      48.0000003 magnetization 
 augmentation part        3.5532845 magnetization 

 Free energy of the ion-electron system (eV)
  ---------------------------------------------------
  alpha Z        PSCENC =        69.31646906
  Ewald energy   TEWEN  =     -1890.11586297
  -Hartree energ DENC   =     -1067.48365515
  -exchange      EXHF   =         0.00000000
  -V(xc)+E(xc)   XCENC  =       150.52690998
  PAW double counting   =      7961.74333116    -7922.11665658
  entropy T*S    EENTRO =        -0.00000000
  eigenvalues    EBANDS =      -276.27159841
  atomic energy  EATOM  =      2903.34697324
  Solvation  Ediel_sol  =         0.00000000
  ---------------------------------------------------
  free energy    TOTEN  =       -71.05408968 eV

  energy without entropy =      -71.05408968  energy(sigma->0) =      -71.05408968


--------------------------------------------------------------------------------------------------------




 average (electrostatic) potential at core
  the test charge radii are     0.9892  0.7215
  (the norm of the test charge is              1.0000)
       1 -86.4871       2 -86.4871       3 -86.4871       4 -72.4221       5 -72.4221
       6 -72.4221       7 -72.4221       8 -72.4221       9 -72.4221



 E-fermi :   1.2456     XC(G=0):  -9.1881     alpha+bet :-10.2795

 val. band max:        1.0474464915   @ k =   0.4000   0.2000   0.0000
 cond. band min:       7.0021747679   @ k =   0.0000   0.0000   0.0000
 fundamental gap:      5.9547282764
 Fermi energy:         1.2455503848

 k-point     1 :       0.0000    0.0000    0.0000
  band No.  band energies     occupation 
      1     -18.3509      2.00000
      2     -16.8397      2.00000
      3     -16.8397      2.00000
      4     -16.1877      2.00000
      5     -16.1610      2.00000
      6     -16.1610      2.00000
      7      -7.1761      2.00000
      8      -7.1761      2.00000
      9      -4.3605      2.00000
     10      -4.3371      2.00000
     11      -4.1527      2.00000
     12      -4.1527      2.00000
     13      -1.8618      2.00000
     14      -1.8618      2.00000
     15      -1.6164      2.00000
     16      -1.3823      2.00000
     17      -0.4208      2.00000
     18      -0.4208      2.00000
     19      -0.3932      2.00000
     20       0.0585      2.00000
     21       0.0585      2.00000
     22       0.3815      2.00000
     23       0.7523      2.00000
     24       0.7523      2.00000
     25       7.0022      0.00000
     26      10.3335      0.00000
     27      10.3335      0.00000
     28      10.7777      0.00000
     29      10.7777      0.00000

 k-point     2 :       0.2000    0.0000    0.0000
  band No.  band energies     occupation 
      1     -18.2354      2.00000
      2     -16.9679      2.00000
      3     -16.8221      2.00000
      4     -16.2255      2.00000
      5     -16.1843      2.00000
      6     -16.1657      2.00000
      7      -7.2274      2.00000
      8      -6.9209      2.00000
      9      -4.3935      2.00000
     10      -4.3747      2.00000
     11      -4.2927      2.00000
     12      -3.9478      2.00000
     13      -2.0211      2.00000
     14      -1.7790      2.00000
     15      -1.5806      2.00000
     16      -1.1677      2.00000
     17      -0.7939      2.00000
     18      -0.4713      2.00000
     19      -0.4174      2.00000
     20      -0.0120      2.00000
     21       0.0652      2.00000
     22       0.2582      2.00000
     23       0.8139      2.00000
     24       0.8678      2.00000
     25       7.5978      0.00000
     26      10.3102      0.00000
     27      10.3795      0.00000
     28      10.8352      0.00000
     29      10.9891      0.00000

 k-point     3 :       0.4000    0.0000    0.0000
  band No.  band energies     occupation 
      1     -17.9503      2.00000
      2     -17.2942      2.00000
      3     -16.7909      2.00000
      4     -16.2571      2.00000
      5     -16.2166      2.00000
      6     -16.1864      2.00000
      7      -7.3060      2.00000
      8      -6.4164      2.00000
      9      -4.7348      2.00000
     10      -4.3795      2.00000
     11      -4.3239      2.00000
     12      -3.6049      2.00000
     13      -2.0593      2.00000
     14      -1.7416      2.00000
     15      -1.5865      2.00000
     16      -1.2541      2.00000
     17      -0.9899      2.00000
     18      -0.6441      2.00000
     19      -0.5445      2.00000
     20      -0.0406      2.00000
     21       0.0386      2.00000
     22       0.2675      2.00000
     23       0.8021      2.00000
     24       1.0043      2.00000
     25       8.8627      0.00000
     26      10.2215      0.00000
     27      10.5459      0.00000
     28      10.8860      0.00000
     29      11.4884      0.00000

 k-point     4 :       0.2000    0.2000    0.0000
  band No.  band energies     occupation 
      1     -18.0255      2.00000
      2     -17.2000      2.00000
      3     -16.8108      2.00000
      4     -16.2510      2.00000
      5     -16.2122      2.00000
      6     -16.1784      2.00000
      7      -7.3082      2.00000
      8      -6.4797      2.00000
      9      -4.7987      2.00000
     10      -4.3649      2.00000
     11      -4.2188      2.00000
     12      -3.6830      2.00000
     13      -2.0356      2.00000
     14      -1.7923      2.00000
     15      -1.4985      2.00000
     16      -1.1848      2.00000
     17      -1.0756      2.00000
     18      -0.6229      2.00000
     19      -0.3390      2.00000
     20      -0.2571      2.00000
     21       0.0950      2.00000
     22       0.2808      2.00000
     23       0.7995      2.00000
     24       0.9906      2.00000
     25       8.5287      0.00000
     26      10.3771      0.00000
     27      10.5069      0.00000
     28      11.0090      0.00000
     29      11.1708      0.00000

 k-point     5 :       0.4000    0.2000    0.0000
  band No.  band energies     occupation 
      1     -17.7722      2.00000
      2     -17.4712      2.00000
      3     -16.8086      2.00000
      4     -16.2590      2.00000
      5     -16.2171      2.00000
      6     -16.1961      2.00000
      7      -7.3601      2.00000
      8      -6.0292      2.00000
      9      -5.2200      2.00000
     10      -4.3031      2.00000
     11      -4.2371      2.00000
     12      -3.4855      2.00000
     13      -1.9393      2.00000
     14      -1.8342      2.00000
     15      -1.7375      2.00000
     16      -1.0983      2.00000
     17      -0.9869      2.00000
     18      -0.7241      2.00000
     19      -0.6123      2.00000
     20      -0.1923      2.00000
     21      -0.0443      2.00000
     22       0.4786      2.00000
     23       0.7284      2.00000
     24       1.0474      2.00000
     25       9.5295      0.00000
     26      10.0810      0.00000
     27      10.5545      0.00000
     28      11.0472      0.00000
     29      11.5921      0.00000

 k-point     6 :       0.0000    0.0000    0.2500
  band No.  band energies     occupation 
      1     -18.2306      2.00000
      2     -17.3903      2.00000
      3     -16.3905      2.00000
      4     -16.1865      2.00000
      5     -16.1744      2.00000
      6     -16.1459      2.00000
      7      -7.9633      2.00000
      8      -6.1483      2.00000
      9      -4.5897      2.00000
     10      -4.4376      2.00000
     11      -4.4034      2.00000
     12      -3.7780      2.00000
     13      -1.9312      2.00000
     14      -1.6367      2.00000
     15      -1.5395      2.00000
     16      -1.1919      2.00000
     17      -0.6954      2.00000
     18      -0.5361      2.00000
     19      -0.4393      2.00000
     20      -0.4157      2.00000
     21      -0.0051      2.00000
     22       0.5316      2.00000
     23       0.8369      2.00000
     24       0.9662      2.00000
     25       7.5996      0.00000
     26      10.1340      0.00000
     27      10.2688      0.00000
     28      10.3042      0.00000
     29      11.2320      0.00000

 k-point     7 :       0.2000    0.0000    0.2500
  band No.  band energies     occupation 
      1     -18.1252      2.00000
      2     -17.3734      2.00000
      3     -16.5125      2.00000
      4     -16.2149      2.00000
      5     -16.2062      2.00000
      6     -16.1600      2.00000
      7      -7.7373      2.00000
      8      -6.1894      2.00000
      9      -4.8105      2.00000
     10      -4.3810      2.00000
     11      -4.1565      2.00000
     12      -3.8581      2.00000
     13      -2.0697      2.00000
     14      -1.6224      2.00000
     15      -1.5206      2.00000
     16      -1.1767      2.00000
     17      -0.8910      2.00000
     18      -0.5388      2.00000
     19      -0.4211      2.00000
     20      -0.2689      2.00000
     21       0.1076      2.00000
     22       0.3873      2.00000
     23       0.7625      2.00000
     24       0.9692      2.00000
     25       8.1002      0.00000
     26      10.1667      0.00000
     27      10.3359      0.00000
     28      10.5166      0.00000
     29      11.3015      0.00000

 k-point     8 :       0.0000    0.2000    0.2500
  band No.  band energies     occupation 
      1     -18.1264      2.00000
      2     -17.3677      2.00000
      3     -16.5287      2.00000
      4     -16.2220      2.00000
      5     -16.1783      2.00000
      6     -16.1689      2.00000
      7      -7.7388      2.00000
      8      -6.1900      2.00000
      9      -4.8131      2.00000
     10      -4.3878      2.00000
     11      -4.1731      2.00000
     12      -3.8175      2.00000
     13      -2.0413      2.00000
     14      -1.6096      2.00000
     15      -1.5284      2.00000
     16      -1.2698      2.00000
     17      -0.9391      2.00000
     18      -0.4532      2.00000
     19      -0.3790      2.00000
     20      -0.2900      2.00000
     21       0.1380      2.00000
     22       0.3427      2.00000
     23       0.7087      2.00000
     24       1.0263      2.00000
     25       8.0796      0.00000
     26      10.2431      0.00000
     27      10.4343      0.00000
     28      10.5191      0.00000
     29      11.2250      0.00000

 k-point     9 :       0.4000    0.0000    0.2500
  band No.  band energies     occupation 
      1     -17.8877      2.00000
      2     -17.3735      2.00000
      3     -16.7801      2.00000
      4     -16.2575      2.00000
      5     -16.2282      2.00000
      6     -16.1796      2.00000
      7      -7.3242      2.00000
      8      -6.2439      2.00000
      9      -5.0749      2.00000
     10      -4.3279      2.00000
     11      -4.0437      2.00000
     12      -3.7876      2.00000
     13      -2.1413      2.00000
     14      -1.8691      2.00000
     15      -1.4475      2.00000
     16      -1.2069      2.00000
     17      -0.8509      2.00000
     18      -0.6714      2.00000
     19      -0.4481      2.00000
     20      -0.0773      2.00000
     21       0.1682      2.00000
     22       0.2464      2.00000
     23       0.7238      2.00000
     24       0.8990      2.00000
     25       9.2069      0.00000
     26      10.2000      0.00000
     27      10.4361      0.00000
     28      11.0657      0.00000
     29      11.3341      0.00000

 k-point    10 :       0.0000    0.4000    0.2500
  band No.  band energies     occupation 
      1     -17.8931      2.00000
      2     -17.3528      2.00000
      3     -16.8081      2.00000
      4     -16.2532      2.00000
      5     -16.2156      2.00000
      6     -16.1833      2.00000
      7      -7.3270      2.00000
      8      -6.2464      2.00000
      9      -5.0731      2.00000
     10      -4.3590      2.00000
     11      -4.0291      2.00000
     12      -3.7442      2.00000
     13      -2.0826      2.00000
     14      -1.9047      2.00000
     15      -1.4359      2.00000
     16      -1.3657      2.00000
     17      -0.9013      2.00000
     18      -0.5533      2.00000
     19      -0.3371      2.00000
     20      -0.0642      2.00000
     21       0.0016      2.00000
     22       0.4038      2.00000
     23       0.5462      2.00000
     24       0.9943      2.00000
     25       9.1538      0.00000
     26      10.2536      0.00000
     27      10.6696      0.00000
     28      11.1419      0.00000
     29      11.3869      0.00000

 k-point    11 :       0.2000    0.2000    0.2500
  band No.  band energies     occupation 
      1     -17.9466      2.00000
      2     -17.3591      2.00000
      3     -16.7331      2.00000
      4     -16.2451      2.00000
      5     -16.2213      2.00000
      6     -16.1798      2.00000
      7      -7.4132      2.00000
      8      -6.2027      2.00000
      9      -5.0898      2.00000
     10      -4.3252      2.00000
     11      -4.0248      2.00000
     12      -3.8094      2.00000
     13      -2.1181      2.00000
     14      -1.7358      2.00000
     15      -1.5603      2.00000
     16      -1.2390      2.00000
     17      -0.9176      2.00000
     18      -0.5665      2.00000
     19      -0.3829      2.00000
     20      -0.1130      2.00000
     21       0.1287      2.00000
     22       0.2825      2.00000
     23       0.6705      2.00000
     24       0.9499      2.00000
     25       8.8816      0.00000
     26      10.2629      0.00000
     27      10.6515      0.00000
     28      10.9221      0.00000
     29      11.3007      0.00000

 k-point    12 :       0.4000    0.2000    0.2500
  band No.  band energies     occupation 
      1     -17.7768      2.00000
      2     -17.3922      2.00000
      3     -16.8831      2.00000
      4     -16.2588      2.00000
      5     -16.2401      2.00000
      6     -16.1900      2.00000
      7      -7.1951      2.00000
      8      -6.1312      2.00000
      9      -5.3542      2.00000
     10      -4.3039      2.00000
     11      -4.0276      2.00000
     12      -3.6956      2.00000
     13      -2.1007      2.00000
     14      -1.8824      2.00000
     15      -1.6055      2.00000
     16      -1.0774      2.00000
     17      -0.8904      2.00000
     18      -0.7555      2.00000
     19      -0.2986      2.00000
     20      -0.1941      2.00000
     21       0.0969      2.00000
     22       0.4251      2.00000
     23       0.5980      2.00000
     24       0.8922      2.00000
     25       9.7150      0.00000
     26      10.2217      0.00000
     27      10.6480      0.00000
     28      11.0595      0.00000
     29      11.3589      0.00000

 k-point    13 :       0.0000    0.0000    0.5000
  band No.  band energies     occupation 
      1     -17.8898      2.00000
      2     -17.8898      2.00000
      3     -16.2131      2.00000
      4     -16.1827      2.00000
      5     -16.1827      2.00000
      6     -16.1394      2.00000
      7      -8.2607      2.00000
      8      -5.1948      2.00000
      9      -5.1948      2.00000
     10      -4.5216      2.00000
     11      -4.5216      2.00000
     12      -3.5768      2.00000
     13      -1.6433      2.00000
     14      -1.6433      2.00000
     15      -1.5698      2.00000
     16      -0.9361      2.00000
     17      -0.9361      2.00000
     18      -0.7538      2.00000
     19      -0.7538      2.00000
     20      -0.4612      2.00000
     21      -0.1332      2.00000
     22       0.8471      2.00000
     23       0.8471      2.00000
     24       0.9683      2.00000
     25       8.9504      0.00000
     26       8.9504      0.00000
     27      10.0886      0.00000
     28      10.7315      0.00000
     29      10.7315      0.00000

 k-point    14 :       0.2000    0.0000    0.5000
  band No.  band energies     occupation 
      1     -17.8591      2.00000
      2     -17.7685      2.00000
      3     -16.3736      2.00000
      4     -16.2318      2.00000
      5     -16.1900      2.00000
      6     -16.1599      2.00000
      7      -7.9715      2.00000
      8      -5.4857      2.00000
      9      -5.2616      2.00000
     10      -4.3904      2.00000
     11      -4.3207      2.00000
     12      -3.6571      2.00000
     13      -1.8627      2.00000
     14      -1.8432      2.00000
     15      -1.4637      2.00000
     16      -1.1181      2.00000
     17      -1.0082      2.00000
     18      -0.5662      2.00000
     19      -0.4740      2.00000
     20      -0.2974      2.00000
     21      -0.0446      2.00000
     22       0.6892      2.00000
     23       0.7173      2.00000
     24       0.9237      2.00000
     25       9.2031      0.00000
     26       9.2985      0.00000
     27      10.3045      0.00000
     28      10.7343      0.00000
     29      10.9161      0.00000

 k-point    15 :       0.4000    0.0000    0.5000
  band No.  band energies     occupation 
      1     -17.8065      2.00000
      2     -17.4594      2.00000
      3     -16.7901      2.00000
      4     -16.2719      2.00000
      5     -16.2086      2.00000
      6     -16.1802      2.00000
      7      -7.3365      2.00000
      8      -6.0434      2.00000
      9      -5.3220      2.00000
     10      -4.2583      2.00000
     11      -4.0253      2.00000
     12      -3.8295      2.00000
     13      -2.0958      2.00000
     14      -2.0839      2.00000
     15      -1.3359      2.00000
     16      -1.1329      2.00000
     17      -0.9947      2.00000
     18      -0.4411      2.00000
     19      -0.2668      2.00000
     20      -0.1101      2.00000
     21       0.1216      2.00000
     22       0.3358      2.00000
     23       0.4934      2.00000
     24       0.8841      2.00000
     25       9.7472      0.00000
     26      10.1299      0.00000
     27      10.6155      0.00000
     28      10.8255      0.00000
     29      11.2828      0.00000

 k-point    16 :       0.2000    0.2000    0.5000
  band No.  band energies     occupation 
      1     -17.8117      2.00000
      2     -17.5518      2.00000
      3     -16.6742      2.00000
      4     -16.2571      2.00000
      5     -16.2018      2.00000
      6     -16.1953      2.00000
      7      -7.4849      2.00000
      8      -5.8732      2.00000
      9      -5.3774      2.00000
     10      -4.2135      2.00000
     11      -4.1360      2.00000
     12      -3.7909      2.00000
     13      -2.0896      2.00000
     14      -1.9660      2.00000
     15      -1.3553      2.00000
     16      -1.2601      2.00000
     17      -0.9062      2.00000
     18      -0.5387      2.00000
     19      -0.2598      2.00000
     20      -0.0811      2.00000
     21       0.0566      2.00000
     22       0.4379      2.00000
     23       0.6130      2.00000
     24       0.7841      2.00000
     25       9.6024      0.00000
     26       9.9068      0.00000
     27      10.5330      0.00000
     28      10.9455      0.00000
     29      11.1962      0.00000

 k-point    17 :       0.4000    0.2000    0.5000
  band No.  band energies     occupation 
      1     -17.7788      2.00000
      2     -17.2825      2.00000
      3     -16.9914      2.00000
      4     -16.2783      2.00000
      5     -16.2177      2.00000
      6     -16.2092      2.00000
      7      -6.9529      2.00000
      8      -6.3355      2.00000
      9      -5.4378      2.00000
     10      -4.1397      2.00000
     11      -4.0117      2.00000
     12      -3.8957      2.00000
     13      -2.1882      2.00000
     14      -1.9339      2.00000
     15      -1.5331      2.00000
     16      -0.9946      2.00000
     17      -0.9202      2.00000
     18      -0.6922      2.00000
     19      -0.0047      2.00000
     20       0.0245      2.00000
     21       0.1910      2.00000
     22       0.2500      2.00000
     23       0.4388      2.00000
     24       0.6849      2.00000
     25       9.9147      0.00000
     26      10.5940      0.00000
     27      10.8155      0.00000
     28      10.9310      0.00000
     29      11.1403      0.00000


--------------------------------------------------------------------------------------------------------


 soft charge-density along one line, spin component           1
         0         1         2         3         4         5         6         7         8         9
 total charge-density along one line

 pseudopotential strength for first ion, spin component:           1
 18.764  26.181  -0.001   0.000  -0.000  -0.001   0.000  -0.001
 26.181  36.536  -0.001   0.000  -0.001  -0.002   0.000  -0.001
 -0.001  -0.001   4.218   0.000   0.000   7.863   0.000   0.000
  0.000   0.000   0.000   4.218  -0.000   0.000   7.863  -0.000
 -0.000  -0.001   0.000  -0.000   4.218   0.000  -0.000   7.863
 -0.001  -0.002   7.863   0.000   0.000  14.669   0.001   0.000
  0.000   0.000   0.000   7.863  -0.000   0.001  14.668  -0.001
 -0.001  -0.001   0.000  -0.000   7.863   0.000  -0.001  14.668
 total augmentation occupancy for first ion, spin component:           1
 13.952  -7.433  -0.043   0.000  -0.025   0.016   0.000   0.009
 -7.433   4.086   0.033   0.000   0.019  -0.011   0.000  -0.006
 -0.043   0.033   6.296   0.044   0.005  -2.094  -0.017  -0.012
 -0.000   0.000   0.044   6.392  -0.076  -0.017  -2.124   0.029
 -0.025   0.019   0.005  -0.076   6.291  -0.012   0.030  -2.080
  0.016  -0.011  -2.094  -0.017  -0.012   0.715   0.007   0.006
 -0.000  -0.000  -0.017  -2.124   0.030   0.007   0.726  -0.012
  0.009  -0.006  -0.012   0.029  -2.080   0.006  -0.012   0.709


------------------------ aborting loop because EDIFF is reached ----------------------------------------


    CHARGE:  cpu time      0.8584: real time      0.3881
    FORLOC:  cpu time      0.0126: real time      0.0021
    FORNL :  cpu time      0.3114: real time      0.2922
    STRESS:  cpu time      1.4470: real time      0.4807
    FORCOR:  cpu time      0.1536: real time      0.0376
    FORHAR:  cpu time      0.0316: real time      0.0118
    MIXING:  cpu time      0.0039: real time      0.0016
    OFIELD:  cpu time      0.0000: real time      0.0000

  FORCE on cell =-STRESS in cart. coord.  units (eV):
  Direction    XX          YY          ZZ          XY          YZ          ZX
  --------------------------------------------------------------------------------------
  Alpha Z    69.31647    69.31647    69.31647
  Ewald    -650.35106  -650.35106  -589.41750     0.00000     0.00000     0.00000
  Hartree   345.39783   345.39784   376.68799    -0.00000    -0.00001    -0.00000
  E(xc)    -225.37278  -225.37277  -225.34035    -0.00000    -0.00000     0.00000
  Local    -411.65407  -411.65383  -502.36562    -0.00000     0.00002     0.00000
  n-local   -51.71770   -51.95820   -50.91624    -0.10145     0.08077    -0.01766
  augment    27.21145    27.21122    27.06063    -0.00000     0.00001    -0.00000
  Kinetic   900.78117   901.92962   898.92800     0.41448    -0.06344    -0.10849
  Fock        0.00000     0.00000     0.00000     0.00000     0.00000     0.00000
  -------------------------------------------------------------------------------------
  Total       4.06530     4.06530     3.95336     0.00000     0.00000     0.00000
  in kB      57.28232    57.28232    55.70505     0.00000     0.00000     0.00000
  external pressure =       56.76 kB  Pullay stress =        0.00 kB


 VOLUME and BASIS-vectors are now :
 -----------------------------------------------------------------------------
  energy-cutoff  :      520.00
  volume of cell :      113.71
      direct lattice vectors                 reciprocal lattice vectors
     2.458278904 -4.257863960  0.000000000     0.203394334 -0.117429773  0.000000000
     2.458278904  4.257863960  0.000000000     0.203394334  0.117429773 -0.000000000
     0.000000000  0.000000000  5.431625250    -0.000000000  0.000000000  0.184106958

  length of vectors
     4.916557807  4.916557807  5.431625250     0.234859547  0.234859547  0.184106958


 FORCES acting on ions
    electron-ion (+dipol)            ewald-force                    non-local-force                 convergence-correction
 -----------------------------------------------------------------------------------------------
   0.128E+01 0.221E+01 -.105E-04   -.114E+01 -.198E+01 -.526E-11   -.119E+00 -.205E+00 -.838E-17   0.287E-09 0.497E-09 -.177E-14
   -.256E+01 -.249E-07 0.224E-07   0.228E+01 0.488E-14 -.243E-12   0.237E+00 0.286E-17 0.176E-17   -.574E-09 -.585E-14 0.101E-13
   0.128E+01 -.221E+01 0.106E-04   -.114E+01 0.198E+01 0.107E-11   -.119E+00 0.205E+00 0.491E-17   0.287E-09 -.497E-09 -.189E-14
   0.283E+02 -.655E+02 -.321E+02   -.380E+02 0.811E+02 0.424E+02   0.965E+01 -.154E+02 -.102E+02   0.712E-08 -.173E-07 -.938E-08
   -.708E+02 0.827E+01 -.321E+02   0.892E+02 -.761E+01 0.424E+02   -.182E+02 -.659E+00 -.102E+02   -.186E-07 0.251E-08 -.938E-08
   0.426E+02 0.572E+02 -.321E+02   -.512E+02 -.734E+02 0.424E+02   0.851E+01 0.160E+02 -.102E+02   0.115E-07 0.148E-07 -.938E-08
   0.426E+02 -.572E+02 0.321E+02   -.512E+02 0.734E+02 -.424E+02   0.851E+01 -.160E+02 0.102E+02   0.115E-07 -.148E-07 0.938E-08
   -.708E+02 -.827E+01 0.321E+02   0.892E+02 0.761E+01 -.424E+02   -.182E+02 0.659E+00 0.102E+02   -.186E-07 -.251E-08 0.938E-08
   0.283E+02 0.655E+02 0.321E+02   -.380E+02 -.811E+02 -.424E+02   0.965E+01 0.154E+02 0.102E+02   0.712E-08 0.173E-07 0.938E-08
 -----------------------------------------------------------------------------------------------
   -.718E-05 0.989E-07 0.407E-07   -.284E-13 0.000E+00 -.711E-14   0.355E-14 -.178E-14 -.355E-14   -.124E-12 0.678E-14 -.326E-13


 POSITION                                       TOTAL-FORCE (eV/Angst)
 -----------------------------------------------------------------------------------
      1.15244      1.99608      1.81054         0.017611      0.030502      0.000000
      2.61168      0.00000      0.00000        -0.035221     -0.000000     -0.000000
      1.15244     -1.99608      3.62108         0.017611     -0.030502      0.000000
      2.15340      2.49895      2.97555        -0.111463      0.208819      0.140470
      3.54573      1.14349      4.78609         0.236574     -0.007880      0.140470
      1.67571      0.61542      1.16501        -0.125111     -0.200939      0.140470
      1.67571     -0.61542      4.26662        -0.125111      0.200939     -0.140470
      3.54573     -1.14349      0.64553         0.236574      0.007880     -0.140470
      2.15340     -2.49895      2.45607        -0.111463     -0.208819     -0.140470
 -----------------------------------------------------------------------------------
    total drift:                               -0.000007      0.000000      0.000000


--------------------------------------------------------------------------------------------------------



  FREE ENERGIE OF THE ION-ELECTRON SYSTEM (eV)
  ---------------------------------------------------
  free  energy   TOTEN  =       -71.05408968 eV

  energy  without entropy=      -71.05408968  energy(sigma->0) =      -71.05408968



--------------------------------------------------------------------------------------------------------


    POTLOK:  cpu time      0.1480: real time      0.0352


--------------------------------------------------------------------------------------------------------


 Quasi-Newton relaxation of ions (Broydens 2nd method)
  g(Force)  = 0.221E-01   g(Stress)= 0.000E+00

 Reset! Starting new Quasi-Newton update for ions 


--------------------------------------------------------------------------------------------------------


    WAVPRE:  cpu time      0.1631: real time      0.1524
    FEWALD:  cpu time      0.0580: real time      0.0164
    ORTHCH:  cpu time      0.1871: real time      0.0582
     LOOP+:  cpu time     81.0358: real time     30.4952


--------------------------------------- Ionic step        2  -------------------------------------------




--------------------------------------- Iteration      2(   1)  ---------------------------------------


    POTLOK:  cpu time      0.1399: real time      0.0348
    SETDIJ:  cpu time      0.0072: real time      0.0013
     EDDAV:  cpu time     14.7467: real time      5.0566
       DOS:  cpu time      0.0001: real time      0.0001
    CHARGE:  cpu time      0.8639: real time      0.3887
    MIXING:  cpu time      0.0038: real time      0.0013
    --------------------------------------------
      LOOP:  cpu time     15.7616: real time      5.4828

 eigenvalue-minimisations  :   986
 total energy-change (2. order) :-0.7850906E-02  (-0.6092498E+00)
 number of electron      48.0000003 magnetization 
 augmentation part        3.5415170 magnetization 

 Broyden mixing:
  rms(total) = 0.52811E-01    rms(broyden)= 0.52766E-01
  rms(prec ) = 0.69511E-01
  weight for this iteration     100.00

 Free energy of the ion-electron system (eV)
  ---------------------------------------------------
  alpha Z        PSCENC =        69.31646906
  Ewald energy   TEWEN  =     -1897.95799698
  -Hartree energ DENC   =     -1062.05468343
  -exchange      EXHF   =         0.00000000
  -V(xc)+E(xc)   XCENC  =       150.43030298
  PAW double counting   =      7961.74333871    -7922.11666413
  entropy T*S    EENTRO =        -0.00000000
  eigenvalues    EBANDS =      -273.76968003
  atomic energy  EATOM  =      2903.34697324
  Solvation  Ediel_sol  =         0.00000000
  ---------------------------------------------------
  free energy    TOTEN  =       -71.06194058 eV

  energy without entropy =      -71.06194058  energy(sigma->0) =      -71.06194058


--------------------------------------------------------------------------------------------------------




--------------------------------------- Iteration      2(   2)  ---------------------------------------


    POTLOK:  cpu time      0.1433: real time      0.0358
    SETDIJ:  cpu time      0.0073: real time      0.0014
     EDDAV:  cpu time     17.2752: real time      5.7527
       DOS:  cpu time      0.0001: real time      0.0001
    CHARGE:  cpu time      0.8559: real time      0.3883
    MIXING:  cpu time      0.0036: real time      0.0014
    --------------------------------------------
      LOOP:  cpu time     18.2854: real time      6.1797

 eigenvalue-minimisations  :  1156
 total energy-change (2. order) :-0.1021311E-01  (-0.1276380E-01)
 number of electron      48.0000003 magnetization 
 augmentation part        3.5460037 magnetization 

 Broyden mixing:
  rms(total) = 0.25136E-01    rms(broyden)= 0.25128E-01
  rms(prec ) = 0.40474E-01
  weight for this iteration     100.00

 eigenvalues of (default mixing * dielectric matrix)
  average eigenvalue GAMMA=   0.9035
  0.9035

 Free energy of the ion-electron system (eV)
  ---------------------------------------------------
  alpha Z        PSCENC =        69.31646906
  Ewald energy   TEWEN  =     -1897.95799698
  -Hartree energ DENC   =     -1060.86759151
  -exchange      EXHF   =         0.00000000
  -V(xc)+E(xc)   XCENC  =       150.35756109
  PAW double counting   =      7882.17161463    -7842.53128818
  entropy T*S    EENTRO =        -0.00000000
  eigenvalues    EBANDS =      -274.90789505
  atomic energy  EATOM  =      2903.34697324
  Solvation  Ediel_sol  =         0.00000000
  ---------------------------------------------------
  free energy    TOTEN  =       -71.07215369 eV

  energy without entropy =      -71.07215369  energy(sigma->0) =      -71.07215369


--------------------------------------------------------------------------------------------------------




--------------------------------------- Iteration      2(   3)  ---------------------------------------


    POTLOK:  cpu time      0.1508: real time      0.0360
    SETDIJ:  cpu time      0.0077: real time      0.0013
     EDDAV:  cpu time     17.3899: real time      5.7066
       DOS:  cpu time      0.0001: real time      0.0001
    CHARGE:  cpu time      0.8552: real time      0.3876
    MIXING:  cpu time      0.0038: real time      0.0014
    --------------------------------------------
      LOOP:  cpu time     18.4075: real time      6.1331

 eigenvalue-minimisations  :  1136
 total energy-change (2. order) : 0.1203033E-02  (-0.1589795E-03)
 number of electron      48.0000003 magnetization 
 augmentation part        3.5446067 magnetization 

 Broyden mixing:
  rms(total) = 0.14701E-01    rms(broyden)= 0.14701E-01
  rms(prec ) = 0.23656E-01
  weight for this iteration     100.00

 eigenvalues of (default mixing * dielectric matrix)
  average eigenvalue GAMMA=   1.5191
  1.0038  2.0344

 Free energy of the ion-electron system (eV)
  ---------------------------------------------------
  alpha Z        PSCENC =        69.31646906
  Ewald energy   TEWEN  =     -1897.95799698
  -Hartree energ DENC   =     -1060.87455570
  -exchange      EXHF   =         0.00000000
  -V(xc)+E(xc)   XCENC  =       150.36374031
  PAW double counting   =      7861.55151143    -7821.90106620
  entropy T*S    EENTRO =        -0.00000000
  eigenvalues    EBANDS =      -274.91602581
  atomic energy  EATOM  =      2903.34697324
  Solvation  Ediel_sol  =         0.00000000
[...]
     24       0.9614      2.00000
     25       8.0073      0.00000
     26      10.0459      0.00000
     27      10.2837      0.00000
     28      10.4751      0.00000
     29      11.2704      0.00000

 k-point     8 :       0.0000    0.2000    0.2500
  band No.  band energies     occupation 
      1     -18.0267      2.00000
      2     -17.2736      2.00000
      3     -16.4549      2.00000
      4     -16.1574      2.00000
      5     -16.1145      2.00000
      6     -16.1049      2.00000
      7      -7.6072      2.00000
      8      -6.0911      2.00000
      9      -4.7240      2.00000
     10      -4.3015      2.00000
     11      -4.0786      2.00000
     12      -3.7249      2.00000
     13      -1.9925      2.00000
     14      -1.5550      2.00000
     15      -1.4687      2.00000
     16      -1.2146      2.00000
     17      -0.8554      2.00000
     18      -0.3993      2.00000
     19      -0.2950      2.00000
     20      -0.2172      2.00000
     21       0.1287      2.00000
     22       0.2990      2.00000
     23       0.7360      2.00000
     24       1.0295      2.00000
     25       7.9824      0.00000
     26      10.1369      0.00000
     27      10.3809      0.00000
     28      10.4868      0.00000
     29      11.1706      0.00000

 k-point     9 :       0.4000    0.0000    0.2500
  band No.  band energies     occupation 
      1     -17.7861      2.00000
      2     -17.2809      2.00000
      3     -16.6980      2.00000
      4     -16.1969      2.00000
      5     -16.1639      2.00000
      6     -16.1179      2.00000
      7      -7.2068      2.00000
      8      -6.1485      2.00000
      9      -4.9875      2.00000
     10      -4.2334      2.00000
     11      -3.9514      2.00000
     12      -3.6924      2.00000
     13      -2.0945      2.00000
     14      -1.8125      2.00000
     15      -1.3918      2.00000
     16      -1.1480      2.00000
     17      -0.7805      2.00000
     18      -0.6135      2.00000
     19      -0.3839      2.00000
     20      -0.0447      2.00000
     21       0.1961      2.00000
     22       0.2872      2.00000
     23       0.7370      2.00000
     24       0.9082      2.00000
     25       9.1069      0.00000
     26      10.0183      0.00000
     27      10.3669      0.00000
     28      10.9554      0.00000
     29      11.2707      0.00000

 k-point    10 :       0.0000    0.4000    0.2500
  band No.  band energies     occupation 
      1     -17.7925      2.00000
      2     -17.2565      2.00000
      3     -16.7310      2.00000
      4     -16.1909      2.00000
      5     -16.1552      2.00000
      6     -16.1173      2.00000
      7      -7.2090      2.00000
      8      -6.1538      2.00000
      9      -4.9850      2.00000
     10      -4.2673      2.00000
     11      -3.9343      2.00000
     12      -3.6426      2.00000
     13      -2.0245      2.00000
     14      -1.8568      2.00000
     15      -1.3842      2.00000
     16      -1.3207      2.00000
     17      -0.8135      2.00000
     18      -0.5063      2.00000
     19      -0.2886      2.00000
     20      -0.0404      2.00000
     21       0.0718      2.00000
     22       0.4212      2.00000
     23       0.5693      2.00000
     24       1.0034      2.00000
     25       9.0330      0.00000
     26      10.1490      0.00000
     27      10.5697      0.00000
     28      11.0006      0.00000
     29      11.3199      0.00000

 k-point    11 :       0.2000    0.2000    0.2500
  band No.  band energies     occupation 
      1     -17.8462      2.00000
      2     -17.2643      2.00000
      3     -16.6544      2.00000
      4     -16.1835      2.00000
      5     -16.1567      2.00000
      6     -16.1176      2.00000
      7      -7.2926      2.00000
      8      -6.1071      2.00000
      9      -5.0035      2.00000
     10      -4.2331      2.00000
     11      -3.9303      2.00000
     12      -3.7131      2.00000
     13      -2.0677      2.00000
     14      -1.6822      2.00000
     15      -1.5063      2.00000
     16      -1.1806      2.00000
     17      -0.8503      2.00000
     18      -0.5080      2.00000
     19      -0.3017      2.00000
     20      -0.0617      2.00000
     21       0.1279      2.00000
     22       0.2992      2.00000
     23       0.6989      2.00000
     24       0.9554      2.00000
     25       8.7766      0.00000
     26      10.1422      0.00000
     27      10.5458      0.00000
     28      10.8200      0.00000
     29      11.2463      0.00000

 k-point    12 :       0.4000    0.2000    0.2500
  band No.  band energies     occupation 
      1     -17.6747      2.00000
      2     -17.2973      2.00000
      3     -16.8034      2.00000
      4     -16.1968      2.00000
      5     -16.1763      2.00000
      6     -16.1290      2.00000
      7      -7.0820      2.00000
      8      -6.0373      2.00000
      9      -5.2698      2.00000
     10      -4.2082      2.00000
     11      -3.9320      2.00000
     12      -3.5964      2.00000
     13      -2.0481      2.00000
     14      -1.8285      2.00000
     15      -1.5505      2.00000
     16      -1.0272      2.00000
     17      -0.8333      2.00000
     18      -0.6954      2.00000
     19      -0.2455      2.00000
     20      -0.1487      2.00000
     21       0.1490      2.00000
     22       0.4625      2.00000
     23       0.6129      2.00000
     24       0.9054      2.00000
     25       9.5546      0.00000
     26      10.1236      0.00000
     27      10.5360      0.00000
     28      10.9345      0.00000
     29      11.2405      0.00000

 k-point    13 :       0.0000    0.0000    0.5000
  band No.  band energies     occupation 
      1     -17.7920      2.00000
      2     -17.7920      2.00000
      3     -16.1510      2.00000
      4     -16.1111      2.00000
      5     -16.1111      2.00000
      6     -16.0856      2.00000
      7      -8.1122      2.00000
      8      -5.1036      2.00000
      9      -5.1036      2.00000
     10      -4.4256      2.00000
     11      -4.4256      2.00000
     12      -3.4956      2.00000
     13      -1.5989      2.00000
     14      -1.5989      2.00000
     15      -1.5088      2.00000
     16      -0.8857      2.00000
     17      -0.8857      2.00000
     18      -0.6672      2.00000
     19      -0.6672      2.00000
     20      -0.3510      2.00000
     21      -0.1488      2.00000
     22       0.7999      2.00000
     23       0.7999      2.00000
     24       0.9952      2.00000
     25       8.8626      0.00000
     26       8.8626      0.00000
     27      10.0957      0.00000
     28      10.6317      0.00000
     29      10.6317      0.00000

 k-point    14 :       0.2000    0.0000    0.5000
  band No.  band energies     occupation 
      1     -17.7597      2.00000
      2     -17.6714      2.00000
      3     -16.2980      2.00000
      4     -16.1680      2.00000
      5     -16.1249      2.00000
      6     -16.1035      2.00000
      7      -7.8321      2.00000
      8      -5.3967      2.00000
      9      -5.1711      2.00000
     10      -4.2945      2.00000
     11      -4.2226      2.00000
     12      -3.5679      2.00000
     13      -1.8188      2.00000
     14      -1.7916      2.00000
     15      -1.4069      2.00000
     16      -1.0604      2.00000
     17      -0.9366      2.00000
     18      -0.4952      2.00000
     19      -0.4057      2.00000
     20      -0.2079      2.00000
     21      -0.0462      2.00000
     22       0.6728      2.00000
     23       0.6827      2.00000
     24       0.9390      2.00000
     25       9.0870      0.00000
     26       9.2075      0.00000
     27      10.2665      0.00000
     28      10.6646      0.00000
     29      10.8643      0.00000

 k-point    15 :       0.4000    0.0000    0.5000
  band No.  band energies     occupation 
      1     -17.7043      2.00000
      2     -17.3639      2.00000
      3     -16.7083      2.00000
      4     -16.2095      2.00000
      5     -16.1505      2.00000
      6     -16.1191      2.00000
      7      -7.2143      2.00000
      8      -5.9517      2.00000
      9      -5.2326      2.00000
     10      -4.1647      2.00000
     11      -3.9225      2.00000
     12      -3.7339      2.00000
     13      -2.0454      2.00000
     14      -2.0287      2.00000
     15      -1.2867      2.00000
     16      -1.0731      2.00000
     17      -0.9045      2.00000
     18      -0.3982      2.00000
     19      -0.2145      2.00000
     20      -0.0442      2.00000
     21       0.1358      2.00000
     22       0.3228      2.00000
     23       0.5153      2.00000
     24       0.9087      2.00000
     25       9.5627      0.00000
     26      10.0128      0.00000
     27      10.5180      0.00000
     28      10.8082      0.00000
     29      11.2160      0.00000

 k-point    16 :       0.2000    0.2000    0.5000
  band No.  band energies     occupation 
      1     -17.7098      2.00000
      2     -17.4564      2.00000
      3     -16.5929      2.00000
      4     -16.1917      2.00000
      5     -16.1413      2.00000
      6     -16.1391      2.00000
      7      -7.3590      2.00000
      8      -5.7807      2.00000
      9      -5.2901      2.00000
     10      -4.1196      2.00000
     11      -4.0341      2.00000
     12      -3.6964      2.00000
     13      -2.0406      2.00000
     14      -1.9125      2.00000
     15      -1.2951      2.00000
     16      -1.2030      2.00000
     17      -0.8299      2.00000
     18      -0.4777      2.00000
     19      -0.2013      2.00000
     20      -0.0192      2.00000
     21       0.0662      2.00000
     22       0.4445      2.00000
     23       0.5938      2.00000
     24       0.8156      2.00000
     25       9.4376      0.00000
     26       9.8111      0.00000
     27      10.4342      0.00000
     28      10.8811      0.00000
     29      11.1666      0.00000

 k-point    17 :       0.4000    0.2000    0.5000
  band No.  band energies     occupation 
      1     -17.6751      2.00000
      2     -17.1892      2.00000
      3     -16.9056      2.00000
      4     -16.2133      2.00000
      5     -16.1608      2.00000
      6     -16.1516      2.00000
      7      -6.8389      2.00000
      8      -6.2359      2.00000
      9      -5.3524      2.00000
     10      -4.0449      2.00000
     11      -3.9108      2.00000
     12      -3.8017      2.00000
     13      -2.1341      2.00000
     14      -1.8763      2.00000
     15      -1.4758      2.00000
     16      -0.9340      2.00000
     17      -0.8389      2.00000
     18      -0.6348      2.00000
     19       0.0093      2.00000
     20       0.0807      2.00000
     21       0.1900      2.00000
     22       0.2804      2.00000
     23       0.4684      2.00000
     24       0.7177      2.00000
     25       9.7073      0.00000
     26      10.4337      0.00000
     27      10.7327      0.00000
     28      10.8668      0.00000
     29      11.0296      0.00000


--------------------------------------------------------------------------------------------------------


 soft charge-density along one line, spin component           1
         0         1         2         3         4         5         6         7         8         9
 total charge-density along one line

 pseudopotential strength for first ion, spin component:           1
 18.766  26.185  -0.001   0.000  -0.000  -0.001   0.000  -0.001
 26.185  36.541  -0.001   0.000  -0.000  -0.001   0.000  -0.001
 -0.001  -0.001   4.216   0.000   0.000   7.860   0.000   0.000
  0.000   0.000   0.000   4.216  -0.000   0.000   7.860  -0.001
 -0.000  -0.000   0.000  -0.000   4.216   0.000  -0.001   7.860
 -0.001  -0.001   7.860   0.000   0.000  14.663   0.001   0.000
  0.000   0.000   0.000   7.860  -0.001   0.001  14.663  -0.001
 -0.001  -0.001   0.000  -0.001   7.860   0.000  -0.001  14.663
 total augmentation occupancy for first ion, spin component:           1
 13.328  -7.060  -0.055   0.000  -0.032   0.021   0.000   0.012
 -7.060   3.871   0.041   0.000   0.024  -0.014   0.000  -0.008
 -0.055   0.041   6.065   0.046   0.029  -2.005  -0.018  -0.021
  0.000   0.000   0.046   6.148  -0.079  -0.018  -2.031   0.031
 -0.032   0.024   0.029  -0.079   6.031  -0.021   0.032  -1.981
  0.021  -0.014  -2.005  -0.018  -0.021   0.682   0.007   0.009
  0.000  -0.000  -0.018  -2.031   0.032   0.007   0.691  -0.012
  0.012  -0.008  -0.021   0.031  -1.981   0.009  -0.012   0.672


------------------------ aborting loop because EDIFF is reached ----------------------------------------


    CHARGE:  cpu time      0.8796: real time      0.4044
    FORLOC:  cpu time      0.0125: real time      0.0021
    FORNL :  cpu time      0.3134: real time      0.2945
    STRESS:  cpu time      1.4525: real time      0.4878
    FORCOR:  cpu time      0.1586: real time      0.0382
    FORHAR:  cpu time      0.0332: real time      0.0125
    MIXING:  cpu time      0.0043: real time      0.0019
    OFIELD:  cpu time      0.0000: real time      0.0000

  FORCE on cell =-STRESS in cart. coord.  units (eV):
  Direction    XX          YY          ZZ          XY          YZ          ZX
  --------------------------------------------------------------------------------------
  Alpha Z    69.31647    69.31647    69.31647
  Ewald    -656.79532  -656.79532  -595.97200     0.00000     0.00000    -0.00000
  Hartree   339.83942   339.83943   371.20145    -0.00000    -0.00000    -0.00000
  E(xc)    -224.80064  -224.80064  -224.75860    -0.00000     0.00000     0.00000
  Local    -399.65130  -399.65103  -490.31385    -0.00000     0.00001    -0.00000
  n-local   -52.09597   -52.34354   -51.36097    -0.10325     0.06768    -0.00880
  augment    27.12538    27.12522    26.97711    -0.00000     0.00003    -0.00000
  Kinetic   898.25396   899.29864   896.43701     0.37774    -0.03724    -0.12762
  Fock        0.00000     0.00000     0.00000     0.00000     0.00000     0.00000
  -------------------------------------------------------------------------------------
  Total       1.59061     1.59061     1.52662     0.00000     0.00000     0.00000
  in kB      22.41257    22.41257    21.51094     0.00000     0.00000     0.00000
  external pressure =       22.11 kB  Pullay stress =        0.00 kB


 VOLUME and BASIS-vectors are now :
 -----------------------------------------------------------------------------
  energy-cutoff  :      520.00
  volume of cell :      113.71
      direct lattice vectors                 reciprocal lattice vectors
     2.458278904 -4.257863960  0.000000000     0.203394334 -0.117429773  0.000000000
     2.458278904  4.257863960  0.000000000     0.203394334  0.117429773 -0.000000000
     0.000000000  0.000000000  5.431625250    -0.000000000  0.000000000  0.184106958

  length of vectors
     4.916557807  4.916557807  5.431625250     0.234859547  0.234859547  0.184106958


 FORCES acting on ions
    electron-ion (+dipol)            ewald-force                    non-local-force                 convergence-correction
 -----------------------------------------------------------------------------------------------
   0.103E+01 0.178E+01 0.354E-05   -.909E+00 -.157E+01 0.458E-11   -.113E+00 -.196E+00 -.932E-18   -.237E-04 -.411E-04 -.214E-06
   -.205E+01 -.801E-07 0.195E-07   0.182E+01 0.595E-13 -.171E-11   0.226E+00 -.398E-17 -.995E-17   0.475E-04 -.372E-14 -.547E-13
   0.103E+01 -.178E+01 -.364E-05   -.909E+00 0.157E+01 -.433E-11   -.113E+00 0.196E+00 0.490E-17   -.237E-04 0.411E-04 0.214E-06
   0.295E+02 -.639E+02 -.330E+02   -.400E+02 0.798E+02 0.442E+02   0.105E+02 -.158E+02 -.112E+02   0.184E-02 0.707E-03 -.156E-02
   -.701E+02 0.643E+01 -.330E+02   0.891E+02 -.524E+01 0.442E+02   -.190E+02 -.118E+01 -.112E+02   -.306E-03 -.194E-02 -.156E-02
   0.406E+02 0.575E+02 -.330E+02   -.491E+02 -.745E+02 0.442E+02   0.846E+01 0.170E+02 -.112E+02   -.153E-02 0.124E-02 -.156E-02
   0.406E+02 -.575E+02 0.330E+02   -.491E+02 0.745E+02 -.442E+02   0.846E+01 -.170E+02 0.112E+02   -.153E-02 -.124E-02 0.156E-02
   -.701E+02 -.643E+01 0.330E+02   0.891E+02 0.524E+01 -.442E+02   -.190E+02 0.118E+01 0.112E+02   -.306E-03 0.194E-02 0.156E-02
   0.295E+02 0.639E+02 0.330E+02   -.400E+02 -.798E+02 -.442E+02   0.105E+02 0.158E+02 0.112E+02   0.184E-02 -.707E-03 0.156E-02
 -----------------------------------------------------------------------------------------------
   0.314E-04 -.659E-08 0.212E-07   0.213E-13 0.426E-13 0.142E-13   -.533E-14 -.178E-14 -.355E-14   -.931E-07 0.247E-13 -.868E-13


 POSITION                                       TOTAL-FORCE (eV/Angst)
 -----------------------------------------------------------------------------------
      1.14621      1.98530      1.81054         0.003066      0.005311      0.000000
      2.62413     -0.00000     -0.00000        -0.006132     -0.000000      0.000000
      1.14621     -1.98530      3.62108         0.003066     -0.005311     -0.000000
      2.12364      2.51072      3.00138         0.000269     -0.006939      0.006300
      3.57081      1.16338      4.81192        -0.006144      0.003237      0.006300
      1.68039      0.58377      1.19084         0.005875      0.003702      0.006300
      1.68039     -0.58377      4.24079         0.005875     -0.003702     -0.006300
      3.57081     -1.16338      0.61971        -0.006144     -0.003237     -0.006300
      2.12364     -2.51072      2.43025         0.000269      0.006939     -0.006300
 -----------------------------------------------------------------------------------
    total drift:                                0.000031     -0.000000      0.000000


--------------------------------------------------------------------------------------------------------



  FREE ENERGIE OF THE ION-ELECTRON SYSTEM (eV)
  ---------------------------------------------------
  free  energy   TOTEN  =       -71.08230140 eV

  energy  without entropy=      -71.08230140  energy(sigma->0) =      -71.08230140

 d Force = 0.2444834E-02[ 0.290E-03, 0.460E-02]  d Energy = 0.2442984E-02 0.185E-05
 d Force = 0.3294239E+01[ 0.334E+01, 0.325E+01]  d Ewald  = 0.3294691E+01-0.453E-03


--------------------------------------------------------------------------------------------------------


    POTLOK:  cpu time      0.1520: real time      0.0360


--------------------------------------------------------------------------------------------------------


 Quasi-Newton relaxation of ions (Broydens 2nd method)
  g(Force)  = 0.309E-04   g(Stress)= 0.000E+00

 retain information from N=  2 steps
 eigenvalues of (default step * inverse Hessian matrix)
  average eigenvalue of G=   2.6379
 eigenvalue spectrum of G is  1.6004  3.6754


--------------------------------------------------------------------------------------------------------


  
 reached required accuracy - stopping structural energy minimisation
 writing wavefunctions
     LOOP+:  cpu time    135.0195: real time     49.5666
    4ORBIT:  cpu time      0.0000: real time      0.0007

 total amount of memory used by VASP MPI-rank0   111606. kBytes
=======================================================================

   base      :      30000. kBytes
   nonl-proj :       7131. kBytes
   fftplans  :      17864. kBytes
   grid      :      31769. kBytes
   one-center:         27. kBytes
   wavefun   :      24815. kBytes

  
  
 General timing and accounting informations for this job:
 ========================================================
  
                  Total CPU time used (sec):      854.878
                            User time (sec):      415.110
                          System time (sec):      439.768
                         Elapsed time (sec):      311.735
  
                   Maximum memory used (kb):   185401344.
                   Average memory used (kb):          N/A
  
                          Minor page faults:        46557
                          Major page faults:          997
                 Voluntary context switches:          270
