nqpoint: 255    
npath: 5      
segment_nqpoint:
- 51
- 51
- 51
- 51
- 51
labels:
- [ '$Gamma$', 'A' ]
- [ 'A', 'H' ]
- [ 'H', 'K' ]
- [ 'K', 'L' ]
- [ 'L', 'M' ]
reciprocal_lattice:
- [   0.25725914,  -0.14852863,   0.00000000 ] # a*
- [   0.25725914,   0.14852863,   0.00000000 ] # b*
- [   0.00000000,   0.00000000,   0.15690381 ] # c*
natom: 4      
lattice:
- [     1.943565552266230,    -3.366354284365775,     0.000000000000000 ] # a
- [     1.943565552266230,     3.366354284365775,     0.000000000000000 ] # b
- [     0.000000000000000,     0.000000000000000,     6.373331546415446 ] # c
points:
- symbol: Zn # 1
  coordinates: [  0.333333333333336,  0.666666666666664,  0.000151801095928 ]
  mass: 65.380000
- symbol: Zn # 2
  coordinates: [  0.666666666666664,  0.333333333333336,  0.500151801095929 ]
  mass: 65.380000
- symbol: S # 3
  coordinates: [  0.333333333333336,  0.666666666666664,  0.374848198904072 ]
  mass: 32.065000
- symbol: S # 4
  coordinates: [  0.666666666666664,  0.333333333333336,  0.874848198904071 ]
  mass: 32.065000

phonon:
- q-position: [    0.0000000,    0.0000000,    0.0000000 ]
  distance:    0.0000000
  band:
  - # 1
    frequency:    0.0000001153
  - # 2
    frequency:    0.0000001418
  - # 3
    frequency:    0.0000001674
  - # 4
    frequency:    2.1554206125
  - # 5
    frequency:    2.1554206125
  - # 6
    frequency:    5.5651641996
  - # 7
    frequency:    7.3613643231
  - # 8
    frequency:    7.5144802711
  - # 9
    frequency:    7.5144802711
  - # 10
    frequency:    7.6316297208
  - # 11
    frequency:    7.6316297208
  - # 12
    frequency:    9.2461596031

- q-position: [    0.0000000,    0.0000000,    0.0100000 ]
  distance:    0.0015690
  band:
  - # 1
    frequency:    0.0414193882
  - # 2
    frequency:    0.0414193882
  - # 3
    frequency:    0.1014413063
  - # 4
    frequency:    2.1552903608
  - # 5
    frequency:    2.1552903608
  - # 6
    frequency:    5.5641670858
  - # 7
    frequency:    7.3629835470
  - # 8
    frequency:    7.5144812874
  - # 9
    frequency:    7.5144812874
  - # 10
    frequency:    7.6315723500
  - # 11
    frequency:    7.6315723500
  - # 12
    frequency:    9.2469437700

- q-position: [    0.0000000,    0.0000000,    0.0200000 ]
  distance:    0.0031381
  band:
  - # 1
    frequency:    0.0828189573
  - # 2
    frequency:    0.0828189573
  - # 3
    frequency:    0.2028137763
  - # 4
    frequency:    2.1548992876
  - # 5
    frequency:    2.1548992876
  - # 6
    frequency:    5.5611812772
  - # 7
    frequency:    7.3678349230
  - # 8
    frequency:    7.5144844122
  - # 9
    frequency:    7.5144844122
  - # 10
    frequency:    7.6314003759
  - # 11
    frequency:    7.6314003759
  - # 12
    frequency:    9.2492887156

- q-position: [    0.0000000,    0.0000000,    0.0300000 ]
  distance:    0.0047071
  band:
  - # 1
    frequency:    0.1241789070
  - # 2
    frequency:    0.1241789070
  - # 3
    frequency:    0.3040487991
  - # 4
    frequency:    2.1542464404
  - # 5
    frequency:    2.1542464404
  - # 6
    frequency:    5.5562232505
  - # 7
    frequency:    7.3758996144
  - # 8
    frequency:    7.5144898728
  - # 9
    frequency:    7.5144898728
  - # 10
    frequency:    7.6311142131
  - # 11
    frequency:    7.6311142131
  - # 12
    frequency:    9.2531719001

- q-position: [    0.0000000,    0.0000000,    0.0400000 ]
  distance:    0.0062762
  band:
  - # 1
    frequency:    0.1654794736
  - # 2
    frequency:    0.1654794736
  - # 3
    frequency:    0.4050782118
  - # 4
    frequency:    2.1533302353
  - # 5
    frequency:    2.1533302353
  - # 6
    frequency:    5.5493200654
  - # 7
    frequency:    7.3871463912
  - # 8
    frequency:    7.5144980471
  - # 9
    frequency:    7.5144980471
  - # 10
    frequency:    7.6307145508
  - # 11
    frequency:    7.6307145508
  - # 12
    frequency:    9.2585561696

- q-position: [    0.0000000,    0.0000000,    0.0500000 ]
  distance:    0.0078452
  band:
  - # 1
    frequency:    0.2067009490
  - # 2
    frequency:    0.2067009490
  - # 3
    frequency:    0.5058345187
  - # 4
    frequency:    2.1521484629
  - # 5
    frequency:    2.1521484629
  - # 6
    frequency:    5.5405087792
  - # 7
    frequency:    7.4015318747
  - # 8
    frequency:    7.5145094619
  - # 9
    frequency:    7.5145094619
  - # 10
    frequency:    7.6302023515
  - # 11
    frequency:    7.6302023515
  - # 12
    frequency:    9.2653903565

- q-position: [    0.0000000,    0.0000000,    0.0600000 ]
  distance:    0.0094142
  band:
  - # 1
    frequency:    0.2478236992
  - # 2
    frequency:    0.2478236992
  - # 3
    frequency:    0.6062511026
  - # 4
    frequency:    2.1506982965
  - # 5
    frequency:    2.1506982965
  - # 6
    frequency:    5.5298356633
  - # 7
    frequency:    7.4190008732
  - # 8
    frequency:    7.5145247907
  - # 9
    frequency:    7.5145247907
  - # 10
    frequency:    7.6295788475
  - # 11
    frequency:    7.6295788475
  - # 12
    frequency:    9.2736100874

- q-position: [    0.0000000,    0.0000000,    0.0700000 ]
  distance:    0.0109833
  band:
  - # 1
    frequency:    0.2888281826
  - # 2
    frequency:    0.2888281826
  - # 3
    frequency:    0.7062624289
  - # 4
    frequency:    2.1489763019
  - # 5
    frequency:    2.1489763019
  - # 6
    frequency:    5.5173552498
  - # 7
    frequency:    7.4394868039
  - # 8
    frequency:    7.5145448510
  - # 9
    frequency:    7.5145448510
  - # 10
    frequency:    7.6288455378
  - # 11
    frequency:    7.6288455378
  - # 12
    frequency:    9.2831387650

- q-position: [    0.0000000,    0.0000000,    0.0800000 ]
  distance:    0.0125523
  band:
  - # 1
    frequency:    0.3296949689
  - # 2
    frequency:    0.3296949689
  - # 3
    frequency:    0.8058042386
  - # 4
    frequency:    2.1469784499
  - # 5
    frequency:    2.1469784499
  - # 6
    frequency:    5.5031292478
  - # 7
    frequency:    7.4629121938
  - # 8
    frequency:    7.5145706010
  - # 9
    frequency:    7.5145706010
  - # 10
    frequency:    7.6280041830
  - # 11
    frequency:    7.6280041830
  - # 12
    frequency:    9.2938886915

- q-position: [    0.0000000,    0.0000000,    0.0900000 ]
  distance:    0.0141213
  band:
  - # 1
    frequency:    0.3704047574
  - # 2
    frequency:    0.3704047574
  - # 3
    frequency:    0.9048137308
  - # 4
    frequency:    2.1447001311
  - # 5
    frequency:    2.1447001311
  - # 6
    frequency:    5.4872253642
  - # 7
    frequency:    7.4891892508
  - # 8
    frequency:    7.5146031354
  - # 9
    frequency:    7.5146031354
  - # 10
    frequency:    7.6270568009
  - # 11
    frequency:    7.6270568009
  - # 12
    frequency:    9.3057622917

- q-position: [    0.0000000,    0.0000000,    0.1000000 ]
  distance:    0.0156904
  band:
  - # 1
    frequency:    0.4109383961
  - # 2
    frequency:    0.4109383961
  - # 3
    frequency:    1.0032297309
  - # 4
    frequency:    2.1421361724
  - # 5
    frequency:    2.1421361724
  - # 6
    frequency:    5.4697160722
  - # 7
    frequency:    7.5146436807
  - # 8
    frequency:    7.5146436807
  - # 9
    frequency:    7.5182204976
  - # 10
    frequency:    7.6260056595
  - # 11
    frequency:    7.6260056595
  - # 12
    frequency:    9.3186534012

- q-position: [    0.0000000,    0.0000000,    0.1100000 ]
  distance:    0.0172594
  band:
  - # 1
    frequency:    0.4512769004
  - # 2
    frequency:    0.4512769004
  - # 3
    frequency:    1.1009928466
  - # 4
    frequency:    2.1392808554
  - # 5
    frequency:    2.1392808554
  - # 6
    frequency:    5.4506773611
  - # 7
    frequency:    7.5146935902
  - # 8
    frequency:    7.5146935902
  - # 9
    frequency:    7.5498994562
  - # 10
    frequency:    7.6248532712
  - # 11
    frequency:    7.6248532712
  - # 12
    frequency:    9.3324485797

- q-position: [    0.0000000,    0.0000000,    0.1200000 ]
  distance:    0.0188285
  band:
  - # 1
    frequency:    0.4914014716
  - # 2
    frequency:    0.4914014716
  - # 3
    frequency:    1.1980456093
  - # 4
    frequency:    2.1361279375
  - # 5
    frequency:    2.1361279375
  - # 6
    frequency:    5.4301875032
  - # 7
    frequency:    7.5147543381
  - # 8
    frequency:    7.5147543381
  - # 9
    frequency:    7.5841113760
  - # 10
    frequency:    7.6236023843
  - # 11
    frequency:    7.6236023843
  - # 12
    frequency:    9.3470284196

- q-position: [    0.0000000,    0.0000000,    0.1300000 ]
  distance:    0.0203975
  band:
  - # 1
    frequency:    0.5312935161
  - # 2
    frequency:    0.5312935161
  - # 3
    frequency:    1.2943326005
  - # 4
    frequency:    2.1326706740
  - # 5
    frequency:    2.1326706740
  - # 6
    frequency:    5.4083258665
  - # 7
    frequency:    7.5148275132
  - # 8
    frequency:    7.5148275132
  - # 9
    frequency:    7.6207339932
  - # 10
    frequency:    7.6222559755
  - # 11
    frequency:    7.6222559755
  - # 12
    frequency:    9.3622688184

- q-position: [    0.0000000,    0.0000000,    0.1400000 ]
  distance:    0.0219665
  band:
  - # 1
    frequency:    0.5709346642
  - # 2
    frequency:    0.5709346642
  - # 3
    frequency:    1.3898005645
  - # 4
    frequency:    2.1289018422
  - # 5
    frequency:    2.1289018422
  - # 6
    frequency:    5.3851717962
  - # 7
    frequency:    7.5149148116
  - # 8
    frequency:    7.5149148116
  - # 9
    frequency:    7.6208172402
  - # 10
    frequency:    7.6208172402
  - # 11
    frequency:    7.6596383125
  - # 12
    frequency:    9.3780421947

- q-position: [    0.0000000,    0.0000000,    0.1500000 ]
  distance:    0.0235356
  band:
  - # 1
    frequency:    0.6103067890
  - # 2
    frequency:    0.6103067890
  - # 3
    frequency:    1.4843985065
  - # 4
    frequency:    2.1248137679
  - # 5
    frequency:    2.1248137679
  - # 6
    frequency:    5.3608035843
  - # 7
    frequency:    7.5150180298
  - # 8
    frequency:    7.5150180298
  - # 9
    frequency:    7.6192895834
  - # 10
    frequency:    7.6192895834
  - # 11
    frequency:    7.7006894020
  - # 12
    frequency:    9.3942186282

- q-position: [    0.0000000,    0.0000000,    0.1600000 ]
  distance:    0.0251046
  band:
  - # 1
    frequency:    0.6493920256
  - # 2
    frequency:    0.6493920256
  - # 3
    frequency:    1.5780777771
  - # 4
    frequency:    2.1203983526
  - # 5
    frequency:    2.1203983526
  - # 6
    frequency:    5.3352975395
  - # 7
    frequency:    7.5151390561
  - # 8
    frequency:    7.5151390561
  - # 9
    frequency:    7.6176766087
  - # 10
    frequency:    7.6176766087
  - # 11
    frequency:    7.7437471914
  - # 12
    frequency:    9.4106669124

- q-position: [    0.0000000,    0.0000000,    0.1700000 ]
  distance:    0.0266736
  band:
  - # 1
    frequency:    0.6881727902
  - # 2
    frequency:    0.6881727902
  - # 3
    frequency:    1.6707921442
  - # 4
    frequency:    2.1156471025
  - # 5
    frequency:    2.1156471025
  - # 6
    frequency:    5.3087271657
  - # 7
    frequency:    7.5152798625
  - # 8
    frequency:    7.5152798625
  - # 9
    frequency:    7.6159821074
  - # 10
    frequency:    7.6159821074
  - # 11
    frequency:    7.7886672655
  - # 12
    frequency:    9.4272555129

- q-position: [    0.0000000,    0.0000000,    0.1800000 ]
  distance:    0.0282427
  band:
  - # 1
    frequency:    0.7266317988
  - # 2
    frequency:    0.7266317988
  - # 3
    frequency:    1.7624978521
  - # 4
    frequency:    2.1105511591
  - # 5
    frequency:    2.1105511591
  - # 6
    frequency:    5.2811624513
  - # 7
    frequency:    7.5154424952
  - # 8
    frequency:    7.5154424952
  - # 9
    frequency:    7.6142100470
  - # 10
    frequency:    7.6142100470
  - # 11
    frequency:    7.8353016468
  - # 12
    frequency:    9.4438534276

- q-position: [    0.0000000,    0.0000000,    0.1900000 ]
  distance:    0.0298117
  band:
  - # 1
    frequency:    0.7647520867
  - # 2
    frequency:    0.7647520867
  - # 3
    frequency:    1.8531536704
  - # 4
    frequency:    2.1051013308
  - # 5
    frequency:    2.1051013308
  - # 6
    frequency:    5.2526692721
  - # 7
    frequency:    7.5156290655
  - # 8
    frequency:    7.5156290655
  - # 9
    frequency:    7.6123645586
  - # 10
    frequency:    7.6123645586
  - # 11
    frequency:    7.8834995575
  - # 12
    frequency:    9.4603309498

- q-position: [    0.0000000,    0.0000000,    0.2000000 ]
  distance:    0.0313808
  band:
  - # 1
    frequency:    0.8025170271
  - # 2
    frequency:    0.8025170271
  - # 3
    frequency:    1.9427209318
  - # 4
    frequency:    2.0992881258
  - # 5
    frequency:    2.0992881258
  - # 6
    frequency:    5.2233089009
  - # 7
    frequency:    7.5158417394
  - # 8
    frequency:    7.5158417394
  - # 9
    frequency:    7.6104499240
  - # 10
    frequency:    7.6104499240
  - # 11
    frequency:    7.9331081594
  - # 12
    frequency:    9.4765603380

- q-position: [    0.0000000,    0.0000000,    0.2100000 ]
  distance:    0.0329498
  band:
  - # 1
    frequency:    0.8399103506
  - # 2
    frequency:    0.8399103506
  - # 3
    frequency:    2.0311635615
  - # 4
    frequency:    2.0931017863
  - # 5
    frequency:    2.0931017863
  - # 6
    frequency:    5.1931376224
  - # 7
    frequency:    7.5160827276
  - # 8
    frequency:    7.5160827276
  - # 9
    frequency:    7.6084705623
  - # 10
    frequency:    7.6084705623
  - # 11
    frequency:    7.9839732627
  - # 12
    frequency:    9.4924163961

- q-position: [    0.0000000,    0.0000000,    0.2200000 ]
  distance:    0.0345188
  band:
  - # 1
    frequency:    0.8769161639
  - # 2
    frequency:    0.8769161639
  - # 3
    frequency:    2.0865323229
  - # 4
    frequency:    2.0865323229
  - # 5
    frequency:    2.1184480985
  - # 6
    frequency:    5.1622064437
  - # 7
    frequency:    7.5163542743
  - # 8
    frequency:    7.5163542743
  - # 9
    frequency:    7.6064310159
  - # 10
    frequency:    7.6064310159
  - # 11
    frequency:    8.0359400031
  - # 12
    frequency:    9.5077769725

- q-position: [    0.0000000,    0.0000000,    0.2300000 ]
  distance:    0.0360879
  band:
  - # 1
    frequency:    0.9135189683
  - # 2
    frequency:    0.9135189683
  - # 3
    frequency:    2.0795695503
  - # 4
    frequency:    2.0795695503
  - # 5
    frequency:    2.2045437103
  - # 6
    frequency:    5.1305608951
  - # 7
    frequency:    7.5166586461
  - # 8
    frequency:    7.5166586461
  - # 9
    frequency:    7.6043359364
  - # 10
    frequency:    7.6043359364
  - # 11
    frequency:    8.0888534823
  - # 12
    frequency:    9.5225233845

- q-position: [    0.0000000,    0.0000000,    0.2400000 ]
  distance:    0.0376569
  band:
  - # 1
    frequency:    0.9497036790
  - # 2
    frequency:    0.9497036790
  - # 3
    frequency:    2.0722031241
  - # 4
    frequency:    2.0722031241
  - # 5
    frequency:    2.2894222003
  - # 6
    frequency:    5.0982409114
  - # 7
    frequency:    7.5169981209
  - # 8
    frequency:    7.5169981209
  - # 9
    frequency:    7.6021900692
  - # 10
    frequency:    7.6021900692
  - # 11
    frequency:    8.1425593705
  - # 12
    frequency:    9.5365407764

- q-position: [    0.0000000,    0.0000000,    0.2500000 ]
  distance:    0.0392260
  band:
  - # 1
    frequency:    0.9854556432
  - # 2
    frequency:    0.9854556432
  - # 3
    frequency:    2.0644225770
  - # 4
    frequency:    2.0644225770
  - # 5
    frequency:    2.3730580124
  - # 6
    frequency:    5.0652807861
  - # 7
    frequency:    7.5173749755
  - # 8
    frequency:    7.5173749755
  - # 9
    frequency:    7.5999982388
  - # 10
    frequency:    7.5999982388
  - # 11
    frequency:    8.1969044700
  - # 12
    frequency:    9.5497184192

- q-position: [    0.0000000,    0.0000000,    0.2600000 ]
  distance:    0.0407950
  band:
  - # 1
    frequency:    1.0207606587
  - # 2
    frequency:    1.0207606587
  - # 3
    frequency:    2.0562173566
  - # 4
    frequency:    2.0562173566
  - # 5
    frequency:    2.4554282285
  - # 6
    frequency:    5.0317091907
  - # 7
    frequency:    7.5177914738
  - # 8
    frequency:    7.5177914738
  - # 9
    frequency:    7.5977653333
  - # 10
    frequency:    7.5977653333
  - # 11
    frequency:    8.2517372375
  - # 12
    frequency:    9.5619499585

- q-position: [    0.0000000,    0.0000000,    0.2700000 ]
  distance:    0.0423640
  band:
  - # 1
    frequency:    1.0556049917
  - # 2
    frequency:    1.0556049917
  - # 3
    frequency:    2.0475768628
  - # 4
    frequency:    2.0475768628
  - # 5
    frequency:    2.5365125647
  - # 6
    frequency:    4.9975492498
  - # 7
    frequency:    7.5182498546
  - # 8
    frequency:    7.5182498546
  - # 9
    frequency:    7.5954962884
  - # 10
    frequency:    7.5954962884
  - # 11
    frequency:    8.3069082674
  - # 12
    frequency:    9.5731336199

- q-position: [    0.0000000,    0.0000000,    0.2800000 ]
  distance:    0.0439331
  band:
  - # 1
    frequency:    1.0899753946
  - # 2
    frequency:    1.0899753946
  - # 3
    frequency:    2.0384904854
  - # 4
    frequency:    2.0384904854
  - # 5
    frequency:    2.6162933626
  - # 6
    frequency:    4.9628186664
  - # 7
    frequency:    7.5187523190
  - # 8
    frequency:    7.5187523190
  - # 9
    frequency:    7.5931960717
  - # 10
    frequency:    7.5931960717
  - # 11
    frequency:    8.3622707340
  - # 12
    frequency:    9.5831723760

- q-position: [    0.0000000,    0.0000000,    0.2900000 ]
  distance:    0.0455021
  band:
  - # 1
    frequency:    1.1238591235
  - # 2
    frequency:    1.1238591235
  - # 3
    frequency:    2.0289476419
  - # 4
    frequency:    2.0289476419
  - # 5
    frequency:    2.6947555787
  - # 6
    frequency:    4.9275298886
  - # 7
    frequency:    7.5193010179
  - # 8
    frequency:    7.5193010179
  - # 9
    frequency:    7.5908696666
  - # 10
    frequency:    7.5908696666
  - # 11
    frequency:    8.4176807961
  - # 12
    frequency:    9.5919740827

- q-position: [    0.0000000,    0.0000000,    0.3000000 ]
  distance:    0.0470711
  band:
  - # 1
    frequency:    1.1572439550
  - # 2
    frequency:    1.1572439550
  - # 3
    frequency:    2.0189378153
  - # 4
    frequency:    2.0189378153
  - # 5
    frequency:    2.7718867705
  - # 6
    frequency:    4.8916903129
  - # 7
    frequency:    7.5198980396
  - # 8
    frequency:    7.5198980396
  - # 9
    frequency:    7.5885220561
  - # 10
    frequency:    7.5885220561
  - # 11
    frequency:    8.4729979630
  - # 12
    frequency:    9.5994515899

- q-position: [    0.0000000,    0.0000000,    0.3100000 ]
  distance:    0.0486402
  band:
  - # 1
    frequency:    1.1901182029
  - # 2
    frequency:    1.1901182029
  - # 3
    frequency:    2.0084505914
  - # 4
    frequency:    2.0084505914
  - # 5
    frequency:    2.8476770804
  - # 6
    frequency:    4.8553025171
  - # 7
    frequency:    7.5205453966
  - # 8
    frequency:    7.5205453966
  - # 9
    frequency:    7.5861582068
  - # 10
    frequency:    7.5861582068
  - # 11
    frequency:    8.5280854248
  - # 12
    frequency:    9.6055228298

- q-position: [    0.0000000,    0.0000000,    0.3200000 ]
  distance:    0.0502092
  band:
  - # 1
    frequency:    1.2224707338
  - # 2
    frequency:    1.2224707338
  - # 3
    frequency:    1.9974756960
  - # 4
    frequency:    1.9974756960
  - # 5
    frequency:    2.9221192174
  - # 6
    frequency:    4.8183645175
  - # 7
    frequency:    7.5212450138
  - # 8
    frequency:    7.5212450138
  - # 9
    frequency:    7.5837830529
  - # 10
    frequency:    7.5837830529
  - # 11
    frequency:    8.5828103481
  - # 12
    frequency:    9.6101108895

- q-position: [    0.0000000,    0.0000000,    0.3300000 ]
  distance:    0.0517783
  band:
  - # 1
    frequency:    1.2542909828
  - # 2
    frequency:    1.2542909828
  - # 3
    frequency:    1.9860030312
  - # 4
    frequency:    1.9860030312
  - # 5
    frequency:    2.9952084349
  - # 6
    frequency:    4.7808700460
  - # 7
    frequency:    7.5219987153
  - # 8
    frequency:    7.5219987153
  - # 9
    frequency:    7.5814014800
  - # 10
    frequency:    7.5814014800
  - # 11
    frequency:    8.6370441396
  - # 12
    frequency:    9.6131440681

- q-position: [    0.0000000,    0.0000000,    0.3400000 ]
  distance:    0.0533473
  band:
  - # 1
    frequency:    1.2855689680
  - # 2
    frequency:    1.2855689680
  - # 3
    frequency:    1.9740227120
  - # 4
    frequency:    1.9740227120
  - # 5
    frequency:    3.0669425069
  - # 6
    frequency:    4.7428088432
  - # 7
    frequency:    7.5228082125
  - # 8
    frequency:    7.5228082125
  - # 9
    frequency:    7.5790183099
  - # 10
    frequency:    7.5790183099
  - # 11
    frequency:    8.6906626795
  - # 12
    frequency:    9.6145559241

- q-position: [    0.0000000,    0.0000000,    0.3500000 ]
  distance:    0.0549163
  band:
  - # 1
    frequency:    1.3162953043
  - # 2
    frequency:    1.3162953043
  - # 3
    frequency:    1.9615251009
  - # 4
    frequency:    1.9615251009
  - # 5
    frequency:    3.1373216999
  - # 6
    frequency:    4.7041669616
  - # 7
    frequency:    7.5236750920
  - # 8
    frequency:    7.5236750920
  - # 9
    frequency:    7.5766382848
  - # 10
    frequency:    7.5766382848
  - # 11
    frequency:    8.7435465257
  - # 12
    frequency:    9.6142853141

- q-position: [    0.0000000,    0.0000000,    0.3600000 ]
  distance:    0.0564854
  band:
  - # 1
    frequency:    1.3464612167
  - # 2
    frequency:    1.3464612167
  - # 3
    frequency:    1.9485008428
  - # 4
    frequency:    1.9485008428
  - # 5
    frequency:    3.2063487415
  - # 6
    frequency:    4.6649270777
  - # 7
    frequency:    7.5246008036
  - # 8
    frequency:    7.5246008036
  - # 9
    frequency:    7.5742660523
  - # 10
    frequency:    7.5742660523
  - # 11
    frequency:    8.7955810933
  - # 12
    frequency:    9.6122764248

- q-position: [    0.0000000,    0.0000000,    0.3700000 ]
  distance:    0.0580544
  band:
  - # 1
    frequency:    1.3760585524
  - # 2
    frequency:    1.3760585524
  - # 3
    frequency:    1.9349408986
  - # 4
    frequency:    1.9349408986
  - # 5
    frequency:    3.2740287848
  - # 6
    frequency:    4.6250688085
  - # 7
    frequency:    7.5255866492
  - # 8
    frequency:    7.5255866492
  - # 9
    frequency:    7.5719061509
  - # 10
    frequency:    7.5719061509
  - # 11
    frequency:    8.8466568085
  - # 12
    frequency:    9.6084788006

- q-position: [    0.0000000,    0.0000000,    0.3800000 ]
  distance:    0.0596234
  band:
  - # 1
    frequency:    1.4050797921
  - # 2
    frequency:    1.4050797921
  - # 3
    frequency:    1.9208365774
  - # 4
    frequency:    1.9208365774
  - # 5
    frequency:    3.3403693673
  - # 6
    frequency:    4.5845690296
  - # 7
    frequency:    7.5266337715
  - # 8
    frequency:    7.5266337715
  - # 9
    frequency:    7.5695629959
  - # 10
    frequency:    7.5695629959
  - # 11
    frequency:    8.8966692420
  - # 12
    frequency:    9.6028473671

- q-position: [    0.0000000,    0.0000000,    0.3900000 ]
  distance:    0.0611925
  band:
  - # 1
    frequency:    1.4335180602
  - # 2
    frequency:    1.4335180602
  - # 3
    frequency:    1.9061795684
  - # 4
    frequency:    1.9061795684
  - # 5
    frequency:    3.4053803653
  - # 6
    frequency:    4.5434021927
  - # 7
    frequency:    7.5277431435
  - # 8
    frequency:    7.5277431435
  - # 9
    frequency:    7.5672408654
  - # 10
    frequency:    7.5672408654
  - # 11
    frequency:    8.9455192216
  - # 12
    frequency:    9.5953424536

- q-position: [    0.0000000,    0.0000000,    0.4000000 ]
  distance:    0.0627615
  band:
  - # 1
    frequency:    1.4613671339
  - # 2
    frequency:    1.4613671339
  - # 3
    frequency:    1.8909619702
  - # 4
    frequency:    1.8909619702
  - # 5
    frequency:    3.4690739419
  - # 6
    frequency:    4.5015406409
  - # 7
    frequency:    7.5289155586
  - # 8
    frequency:    7.5289155586
  - # 9
    frequency:    7.5649438882
  - # 10
    frequency:    7.5649438882
  - # 11
    frequency:    8.9931129264
  - # 12
    frequency:    9.5859298124

- q-position: [    0.0000000,    0.0000000,    0.4100000 ]
  distance:    0.0643306
  band:
  - # 1
    frequency:    1.4886214511
  - # 2
    frequency:    1.4886214511
  - # 3
    frequency:    1.8751763207
  - # 4
    frequency:    1.8751763207
  - # 5
    frequency:    3.5314644876
  - # 6
    frequency:    4.4589549180
  - # 7
    frequency:    7.5301516213
  - # 8
    frequency:    7.5301516213
  - # 9
    frequency:    7.5626760307
  - # 10
    frequency:    7.5626760307
  - # 11
    frequency:    9.0393619659
  - # 12
    frequency:    9.5745806387

- q-position: [    0.0000000,    0.0000000,    0.4200000 ]
  distance:    0.0658996
  band:
  - # 1
    frequency:    1.5152761170
  - # 2
    frequency:    1.5152761170
  - # 3
    frequency:    1.8588156237
  - # 4
    frequency:    1.8588156237
  - # 5
    frequency:    3.5925685542
  - # 6
    frequency:    4.4156140726
  - # 7
    frequency:    7.5314517385
  - # 8
    frequency:    7.5314517385
  - # 9
    frequency:    7.5604410858
  - # 10
    frequency:    7.5604410858
  - # 11
    frequency:    9.0841834436
  - # 12
    frequency:    9.5612715888

- q-position: [    0.0000000,    0.0000000,    0.4300000 ]
  distance:    0.0674686
  band:
  - # 1
    frequency:    1.5413269097
  - # 2
    frequency:    1.5413269097
  - # 3
    frequency:    1.8418733752
  - # 4
    frequency:    1.8418733752
  - # 5
    frequency:    3.6524047809
  - # 6
    frequency:    4.3714859525
  - # 7
    frequency:    7.5328161112
  - # 8
    frequency:    7.5328161112
  - # 9
    frequency:    7.5582426626
  - # 10
    frequency:    7.5582426626
  - # 11
    frequency:    9.1275000077
  - # 12
    frequency:    9.5459847989

- q-position: [    0.0000000,    0.0000000,    0.4400000 ]
  distance:    0.0690377
  band:
  - # 1
    frequency:    1.5667702839
  - # 2
    frequency:    1.5667702839
  - # 3
    frequency:    1.8243435880
  - # 4
    frequency:    1.8243435880
  - # 5
    frequency:    3.7109938102
  - # 6
    frequency:    4.3265374919
  - # 7
    frequency:    7.5342447279
  - # 8
    frequency:    7.5342447279
  - # 9
    frequency:    7.5560841756
  - # 10
    frequency:    7.5560841756
  - # 11
    frequency:    9.1692398913
  - # 12
    frequency:    9.5287079036

- q-position: [    0.0000000,    0.0000000,    0.4500000 ]
  distance:    0.0706067
  band:
  - # 1
    frequency:    1.5916033733
  - # 2
    frequency:    1.5916033733
  - # 3
    frequency:    1.8062208142
  - # 4
    frequency:    1.8062208142
  - # 5
    frequency:    3.7683581957
  - # 6
    frequency:    4.2807349861
  - # 7
    frequency:    7.5357373576
  - # 8
    frequency:    7.5357373576
  - # 9
    frequency:    7.5539688370
  - # 10
    frequency:    7.5539688370
  - # 11
    frequency:    9.2093369413
  - # 12
    frequency:    9.5094340547

- q-position: [    0.0000000,    0.0000000,    0.4600000 ]
  distance:    0.0721758
  band:
  - # 1
    frequency:    1.6158239921
  - # 2
    frequency:    1.6158239921
  - # 3
    frequency:    1.7875001669
  - # 4
    frequency:    1.7875001669
  - # 5
    frequency:    3.8245222993
  - # 6
    frequency:    4.2340443568
  - # 7
    frequency:    7.5372935448
  - # 8
    frequency:    7.5372935448
  - # 9
    frequency:    7.5518996479
  - # 10
    frequency:    7.5518996479
  - # 11
    frequency:    9.2477306394
  - # 12
    frequency:    9.4881619394

- q-position: [    0.0000000,    0.0000000,    0.4700000 ]
  distance:    0.0737448
  band:
  - # 1
    frequency:    1.6394306340
  - # 2
    frequency:    1.6394306340
  - # 3
    frequency:    1.7681773391
  - # 4
    frequency:    1.7681773391
  - # 5
    frequency:    3.8795121773
  - # 6
    frequency:    4.1864314041
  - # 7
    frequency:    7.5389126050
  - # 8
    frequency:    7.5389126050
  - # 9
    frequency:    7.5498793916
  - # 10
    frequency:    7.5498793916
  - # 11
    frequency:    9.2843661151
  - # 12
    frequency:    9.4648957990

- q-position: [    0.0000000,    0.0000000,    0.4800000 ]
  distance:    0.0753138
  band:
  - # 1
    frequency:    1.6624224699
  - # 2
    frequency:    1.6624224699
  - # 3
    frequency:    1.7482486221
  - # 4
    frequency:    1.7482486221
  - # 5
    frequency:    3.9333554560
  - # 6
    frequency:    4.1378620469
  - # 7
    frequency:    7.5405936205
  - # 8
    frequency:    7.5405936205
  - # 9
    frequency:    7.5479106278
  - # 10
    frequency:    7.5479106278
  - # 11
    frequency:    9.3191941526
  - # 12
    frequency:    9.4396454466

- q-position: [    0.0000000,    0.0000000,    0.4900000 ]
  distance:    0.0768829
  band:
  - # 1
    frequency:    1.6847993445
  - # 2
    frequency:    1.6847993445
  - # 3
    frequency:    1.7277109213
  - # 4
    frequency:    1.7277109213
  - # 5
    frequency:    3.9860811948
  - # 6
    frequency:    4.0883025497
  - # 7
    frequency:    7.5423354388
  - # 8
    frequency:    7.5423354388
  - # 9
    frequency:    7.5459956878
  - # 10
    frequency:    7.5459956878
  - # 11
    frequency:    9.3521711916
  - # 12
    frequency:    9.4124262853

- q-position: [    0.0000000,    0.0000000,    0.5000000 ]
  distance:    0.0784519
  band:
  - # 1
    frequency:    1.7065617705
  - # 2
    frequency:    1.7065617705
  - # 3
    frequency:    1.7065617705
  - # 4
    frequency:    1.7065617705
  - # 5
    frequency:    4.0377197373
  - # 6
    frequency:    4.0377197373
  - # 7
    frequency:    7.5441366702
  - # 8
    frequency:    7.5441366702
  - # 9
    frequency:    7.5441366702
  - # 10
    frequency:    7.5441366702
  - # 11
    frequency:    9.3832593237
  - # 12
    frequency:    9.3832593237

- q-position: [    0.0000000,    0.0000000,    0.5000000 ]
  distance:    0.0784519
  band:
  - # 1
    frequency:    1.7065617705
  - # 2
    frequency:    1.7065617705