72   
4    

1    
  0.0033749968256213  -0.0058456659773597   0.0073781830899067
  -0.0189646000    0.0335853200   -0.0437459200
   0.0013708400   -0.0026577400   -0.0008206800
   0.0000065200   -0.0058247400   -0.0027166900
  -0.0007452700   -0.0016984600   -0.0010187900
  -0.0002155900    0.0028751700   -0.0025012100
   0.0004450400   -0.0007503000   -0.0007401100
  -0.0021018600   -0.0012774100   -0.0000713300
   0.0004473700   -0.0007525900   -0.0007429200
   0.0042498300    0.0042549000   -0.0034511200
   0.0000606400   -0.0000841500    0.0021834700
   0.0003776000   -0.0001691800    0.0001869500
   0.0001586100    0.0007210000    0.0010012600
  -0.0001809700    0.0005598200    0.0005155800
   0.0005083900   -0.0002709200    0.0006800300
   0.0000444500   -0.0000598000    0.0004445400
  -0.0004050000   -0.0000830100    0.0001070000
   0.0000412300   -0.0000581800    0.0004443900
  -0.0005966800   -0.0003980400    0.0010836700
   0.0000895000   -0.0046905400    0.0027598300
  -0.0000823900   -0.0008795000    0.0004124800
  -0.0056973900    0.0031630400    0.0005612200
   0.0049377300    0.0026203600    0.0016616400
   0.0005922000    0.0000456300    0.0003756700
  -0.0003516700    0.0001253700    0.0002033400
   0.0004346800   -0.0006780400    0.0004230500
   0.0003519800    0.0002758100    0.0004062300
  -0.0006231300    0.0004333500    0.0002884600
   0.0000925400    0.0022773400   -0.0027841000
   0.0003629700   -0.0006218700    0.0004160300
   0.0003296900   -0.0003179900    0.0060847500
  -0.0010908000   -0.0008638700    0.0016530200
   0.0002281700    0.0002587900    0.0000448000
  -0.0003510600   -0.0002931900    0.0005365700
  -0.0000091500   -0.0004199400    0.0000196100
   0.0003520300   -0.0002400600    0.0008125400
  -0.0002591600    0.0006459200    0.0002921200
   0.0016117900   -0.0027602300    0.0241765200
  -0.0005708800    0.0011313200   -0.0001288900
   0.0005088500   -0.0000702000    0.0011560600
  -0.0003721700   -0.0005295200    0.0004957400
  -0.0009512200   -0.0004107000    0.0005148300
  -0.0000433600    0.0001080400    0.0002565600
   0.0006453200    0.0009270800   -0.0001389800
  -0.0001258400    0.0002509400    0.0002817800
   0.0004831800   -0.0005918200    0.0011638800
   0.0003761300   -0.0006780100   -0.0014981300
  -0.0005484800    0.0002226200    0.0003866300
  -0.0000397300    0.0005745000   -0.0013395700
   0.0002457500    0.0000265300   -0.0003032800
  -0.0000448400   -0.0000850400   -0.0006548800
  -0.0000252900    0.0000378700   -0.0002806900
   0.0006415000    0.0000603500    0.0005807800
  -0.0001540100    0.0002638200   -0.0003547300
  -0.0004234500   -0.0003771200   -0.0015135500
  -0.0000317100    0.0004896700   -0.0013008700
  -0.0001284800    0.0001932100   -0.0002449300
   0.0010728200   -0.0005774700   -0.0018847900
  -0.0007861100   -0.0003545800   -0.0015954000
  -0.0002333300   -0.0000495000   -0.0002113900
   0.0001516800   -0.0000921100   -0.0001850200
  -0.0000216100    0.0001246600   -0.0001767400
  -0.0001191300    0.0001009400   -0.0002878100
   0.0002501200   -0.0001952800   -0.0002164000
   0.0012918000   -0.0102522100    0.0001945300
  -0.0007935400    0.0018564100    0.0002662400
   0.0197799100   -0.0129700200    0.0107695100
  -0.0047489400   -0.0057827200    0.0056376000
  -0.0004482400   -0.0001883400    0.0003438700
   0.0003894600    0.0010848300    0.0002612600
   0.0003308900    0.0009508000    0.0001190500
  -0.0010115000   -0.0003167100    0.0003998500
   0.0000353800   -0.0008743100    0.0003059800

1    
 -0.0033749968256213   0.0058456659773597  -0.0073781830899067
   0.0202064800   -0.0342092500    0.0433210500
  -0.0013723500    0.0026846000    0.0008557100
  -0.0000161700    0.0058741700    0.0027568500
   0.0007521600    0.0017280500    0.0010622200
   0.0002122300   -0.0028389200    0.0025490300
  -0.0004435400    0.0007941100    0.0007868400
   0.0021061900    0.0013172000    0.0001162100
  -0.0004491700    0.0007953500    0.0007896300
  -0.0042545400   -0.0042270300    0.0034993400
  -0.0000592100    0.0001202700   -0.0021446900
  -0.0003850900    0.0002114000   -0.0001442300
  -0.0001539300   -0.0006799900   -0.0009550900
   0.0001804800   -0.0005195900   -0.0004669900
  -0.0005100500    0.0003129600   -0.0006295000
  -0.0000438300    0.0000939600   -0.0004004500
   0.0004097700    0.0001213500   -0.0000568300
  -0.0000456300    0.0000982200   -0.0004013600
   0.0005959400    0.0004378000   -0.0010379300
  -0.0000941400    0.0046587800   -0.0026759500
   0.0000789500    0.0008409200   -0.0003664100
   0.0056881300   -0.0031982000   -0.0005169100
  -0.0049413500   -0.0026570500   -0.0015998300
  -0.0005899700   -0.0000856300   -0.0003306000
   0.0003551300   -0.0001629300   -0.0001518300
  -0.0004375300    0.0006389200   -0.0003767400
  -0.0003521000   -0.0003110400   -0.0003549200
   0.0006218900   -0.0004748300   -0.0002427000
  -0.0000928700   -0.0023151300    0.0028301800
  -0.0003608200    0.0005847000   -0.0003706300
  -0.0003588000    0.0002936500   -0.0060512200
   0.0011056800    0.0008277700   -0.0016062600
  -0.0002288000   -0.0002904300   -0.0000001800
   0.0003519700    0.0002544500   -0.0004933800
   0.0000052000    0.0003854000    0.0000293800
  -0.0003519300    0.0001955600   -0.0007726200
   0.0002629600   -0.0006813200   -0.0002437500
  -0.0016519500    0.0028981300   -0.0232104500
   0.0006029600   -0.0011117600    0.0000705200
  -0.0005255500    0.0000776400   -0.0012286600
   0.0003907000    0.0005427700   -0.0005547800
   0.0009404600    0.0004111400   -0.0005816800
   0.0000442900   -0.0000513700   -0.0002840500
  -0.0006815300   -0.0009103500    0.0000987100
   0.0001232600   -0.0002157100   -0.0003328200
  -0.0004691500    0.0005904600   -0.0012392000
  -0.0003885300    0.0006826600    0.0014166200
   0.0005442500   -0.0002079600   -0.0004461300
   0.0000529300   -0.0005285400    0.0012926400
  -0.0002550900    0.0000325300    0.0002280400
   0.0000565000    0.0000927100    0.0006010700
   0.0000107200   -0.0000431600    0.0002056000
  -0.0006241200   -0.0000534500   -0.0006130500
   0.0001489200   -0.0002246100    0.0002757700
   0.0004205100    0.0004016100    0.0014436900
   0.0000547000   -0.0004848000    0.0012843500
   0.0001029500   -0.0002139400    0.0001966200
  -0.0010580900    0.0005356700    0.0018357900
   0.0007518200    0.0003551300    0.0015562100
   0.0002441500    0.0000018100    0.0001447900
  -0.0001288900    0.0000868700    0.0001643100
   0.0000213700   -0.0001864000    0.0001288900
   0.0001355000   -0.0000945500    0.0002525400
  -0.0002864500    0.0001817400    0.0001454900
  -0.0012995800    0.0102598100   -0.0003202800
   0.0008006200   -0.0018789500   -0.0003178700
  -0.0208834500    0.0135047800   -0.0111331000
   0.0047339900    0.0056944500   -0.0055970200
   0.0004297900    0.0001909400   -0.0003933600
  -0.0003977200   -0.0011347800   -0.0003331100
  -0.0003365700   -0.0009901300   -0.0001844000
   0.0010169600    0.0002780400   -0.0004313400
  -0.0000320300    0.0008933100   -0.0003458200

37   
  0.0033749968256213  -0.0058456659773597   0.0073781830899067
   0.0016629200   -0.0028733700    0.0231795100
   0.0003996500   -0.0000293300    0.0012810600
  -0.0001466300    0.0012946900   -0.0001902600
   0.0002261200    0.0008035700   -0.0000145900
   0.0006326600   -0.0006143200    0.0010972700
  -0.0001368900    0.0002605800    0.0002972700
  -0.0002531200   -0.0002068700    0.0007275900
  -0.0000456400    0.0000970600    0.0002677800
  -0.0010980600   -0.0007090800    0.0003636400
   0.0003931300   -0.0006610200   -0.0014635900
  -0.0015405200    0.0007787500   -0.0004839900
  -0.0002818300   -0.0006739700   -0.0004178900
   0.0003743400   -0.0013077600   -0.0003856400
  -0.0009266900    0.0005780100   -0.0005076700
  -0.0001442700    0.0002656900   -0.0003175200
   0.0017367200    0.0006859400   -0.0004175900
  -0.0000250000    0.0000626100   -0.0002447500
   0.0004411100    0.0003973400   -0.0004770300
   0.0012675600   -0.0246289300    0.0113152300
  -0.0011552800    0.0016570400    0.0002886000
   0.0084012600   -0.0064111900    0.0001285800
   0.0071509700    0.0011039100    0.0055993100
  -0.0008469800    0.0000193900   -0.0000014700
   0.0003866900    0.0006386100    0.0006659400
   0.0006997100    0.0007465600    0.0004842100
  -0.0010143700    0.0000935400    0.0001114500
   0.0004279500   -0.0006669300    0.0003281300
  -0.0000415000   -0.0000096400   -0.0009167100
  -0.0000644700    0.0002236400   -0.0002116300
   0.0006412600   -0.0003448200   -0.0022409600
  -0.0003550600   -0.0001336900   -0.0015831900
  -0.0001198400   -0.0001145400   -0.0000648400
   0.0001444600    0.0000343000   -0.0002886600
  -0.0000789000    0.0001676400   -0.0002117800
  -0.0001222700    0.0000097800   -0.0002125700
   0.0001470000   -0.0002692700   -0.0001719600
  -0.0271807400    0.0478826100   -0.0603335800
   0.0020388500   -0.0050623200   -0.0002512500
   0.0032404800   -0.0052039500   -0.0009564400
  -0.0019250700   -0.0031498600   -0.0005391800
   0.0029170000    0.0006791500   -0.0006606300
   0.0001383800   -0.0002109200   -0.0002107500
  -0.0007069200   -0.0019850800   -0.0001768900
   0.0001232200   -0.0002081700   -0.0001955600
   0.0028513400    0.0001789800   -0.0010040900
  -0.0001225400    0.0002180100    0.0008201900
   0.0002287700   -0.0001319900    0.0007593000
   0.0000143400   -0.0001750000    0.0008105100
  -0.0000730800    0.0000896600    0.0007832500
   0.0000420900    0.0000656000    0.0007990300
   0.0000305200   -0.0000604300    0.0001567900
  -0.0002867400   -0.0000927100    0.0007722500
   0.0000314800   -0.0000472000    0.0001575700
   0.0001610400    0.0001778600    0.0008071400
  -0.0003275100   -0.0041936800    0.0053871300
   0.0002760900   -0.0002909800   -0.0000343600
  -0.0012426100    0.0010960800    0.0023913300
   0.0021657300    0.0020404300    0.0038782000
   0.0003959900   -0.0001545400    0.0001793700
  -0.0000805000    0.0000693500   -0.0001227400
  -0.0002022200   -0.0001306400   -0.0001068000
   0.0002029200   -0.0000838300    0.0000265100
  -0.0003086000    0.0000216400    0.0000149500
  -0.0003225300    0.0006165200    0.0015782000
   0.0001431000   -0.0003777500   -0.0000453700
   0.0028606800   -0.0012773900    0.0061487300
  -0.0019523200   -0.0003745400    0.0038809400
   0.0000159200    0.0000846900   -0.0001682000
  -0.0000916500   -0.0003747400    0.0002103500
  -0.0000574600   -0.0002121400    0.0000293300
   0.0001930800    0.0000662900   -0.0001252400
   0.0000733100    0.0002470400    0.0000287400

37   
 -0.0033749968256213   0.0058456659773597  -0.0073781830899067
  -0.0016013000    0.0027745400   -0.0241521700
  -0.0004029900    0.0000709700   -0.0012303900
   0.0001448400   -0.0012682300    0.0002402900
  -0.0002241900   -0.0007728600    0.0000563600
  -0.0006335100    0.0006552100   -0.0010462200
   0.0001370700   -0.0002186600   -0.0002488500
   0.0002576300    0.0002521300   -0.0006817700
   0.0000473000   -0.0000602700   -0.0002159800
   0.0011061800    0.0007538700   -0.0003130200
  -0.0003852900    0.0006897600    0.0015084300
   0.0015308500   -0.0007364200    0.0005253900
   0.0002821500    0.0007213200    0.0004637700
  -0.0003705700    0.0013417500    0.0004367900
   0.0009270500   -0.0005374500    0.0005604900
   0.0001408200   -0.0002280400    0.0003611600
  -0.0017219400   -0.0006465100    0.0004710900
   0.0000240300   -0.0000244900    0.0002854400
  -0.0004516300   -0.0003602800    0.0005254500
  -0.0013364000    0.0233518700   -0.0109750300
   0.0011598800   -0.0016896400   -0.0002453200
  -0.0084732700    0.0063392200    0.0000038100
  -0.0071326300   -0.0011243200   -0.0055949900
   0.0008421100   -0.0000571500    0.0000500600
  -0.0003930300   -0.0006753600   -0.0006063400
  -0.0006911400   -0.0007920200   -0.0004217400
   0.0010135200   -0.0001327300   -0.0000509300
  -0.0004318100    0.0006347400   -0.0002826100
   0.0000376700   -0.0000286600    0.0009561500
   0.0000688200   -0.0002613500    0.0002543600
  -0.0006440800    0.0003094000    0.0023083100
   0.0003551900    0.0000967600    0.0016315800
   0.0001216100    0.0000768200    0.0001029300
  -0.0001427800   -0.0000733700    0.0003271700
   0.0000735600   -0.0002022200    0.0002513700
   0.0001200300   -0.0000513900    0.0002582200
  -0.0001433900    0.0002263500    0.0002180200
   0.0272563500   -0.0464807700    0.0609687300
  -0.0020435800    0.0050692200    0.0001922900
  -0.0032616300    0.0052494000    0.0008835700
   0.0019296800    0.0031395100    0.0004814400
  -0.0029266600   -0.0006752000    0.0005772600
  -0.0001339400    0.0002548700    0.0001500600
   0.0007434700    0.0020405000    0.0001427200
  -0.0001313700    0.0002451700    0.0001355100
  -0.0028404200   -0.0001883200    0.0009372300
   0.0001217600   -0.0002059000   -0.0008982500
  -0.0002200300    0.0001455700   -0.0008161600
  -0.0000094700    0.0002178400   -0.0008642700
   0.0000706000   -0.0000439200   -0.0008384100
  -0.0000266100   -0.0000533500   -0.0008279100
  -0.0000377900    0.0000727700   -0.0002035000
   0.0002839600    0.0001009600   -0.0007988100
  -0.0000347900    0.0000702400   -0.0002163900
  -0.0001784500   -0.0001606200   -0.0008687200
   0.0003381400    0.0041381000   -0.0053738700
  -0.0002840100    0.0002692700    0.0000091200
   0.0012590500   -0.0011224000   -0.0024539400
  -0.0021929200   -0.0020228800   -0.0038933800
  -0.0003998200    0.0001068600   -0.0002340800
   0.0000888400   -0.0000951900    0.0001042500
   0.0002011500    0.0000809100    0.0000659200
  -0.0001788000    0.0000825500   -0.0000473900
   0.0002913400   -0.0000285500   -0.0000734300
   0.0003352700   -0.0006079100   -0.0016127900
  -0.0001282100    0.0003578000    0.0000009400
  -0.0029077900    0.0012772400   -0.0062407000
   0.0019621800    0.0003393900   -0.0039138700
  -0.0000152900   -0.0000985200    0.0001232500
   0.0000847300    0.0003492800   -0.0002622000
   0.0000498400    0.0001834400   -0.0000787800
  -0.0001922400   -0.0001043900    0.0000789700
  -0.0000828800   -0.0002563100   -0.0000656800
