 vasp.6.4.3 19Mar24 (build Jul  1 2025 23:09:51) complex                         
 executed on             LinuxGNU date 2025.12.31  15:08:44
 running   14 mpi-ranks, with   14 threads/rank, on    1 nodes
 distrk:  each k-point on   14 cores,    1 groups
 distr:  one band on NCORE=   1 cores,   14 groups


--------------------------------------------------------------------------------------------------------


 INCAR:
   GGA = PE
   PREC = Accurate
   ENCUT = 520
   KSPACING = 0.3
   ISMEAR = 0
   SIGMA = 0.03
   EDIFF = 1e-6
   NELM = 120
   NELMIN = 8
   ISIF = 2
   IBRION = 1
   EDIFFG = -1e-3
   NSW = 200

 POTCAR:    PAW_PBE Zn 06Sep2000                  
 POTCAR:    PAW_PBE S 06Sep2000                   
 POTCAR:    PAW_PBE Zn 06Sep2000                  
   SHA256 =  501fddbd8274dd8e9725d4f3de27861d7f1e553a7e18441bc79fed8f346e7f23 Zn/POTCAR             
   COPYR  = (c) Copyright 06Sep2000 Georg Kresse                                                    
   COPYR  = This file is part of the software VASP. Any use, copying, and all other rights are regul
   COPYR  = If you do not have a valid VASP license, you may not use, copy or distribute this file. 
   VRHFIN =Zn: d10 p2                                                                               
   LEXCH  = PE                                                                                      
   EATOM  =  1748.8345 eV,  128.5357 Ry                                                             
                                                                                                    
   TITEL  = PAW_PBE Zn 06Sep2000                                                                    
   LULTRA =        F    use ultrasoft PP ?                                                          
   IUNSCR =        1    unscreen: 0-lin 1-nonlin 2-no                                               
   RPACOR =    2.000    partial core radius                                                         
   POMASS =   65.390; ZVAL   =   12.000    mass and valenz                                          
   RCORE  =    2.300    outmost cutoff radius                                                       
   RWIGS  =    2.400; RWIGS  =    1.270    wigner-seitz radius (au A)                               
   ENMAX  =  276.723; ENMIN  =  207.542 eV                                                          
   RCLOC  =    1.828    cutoff for local pot                                                        
   LCOR   =        T    correct aug charges                                                         
   LPAW   =        T    paw PP                                                                      
   EAUG   =  575.892                                                                                
   DEXC   =    0.000                                                                                
   RMAX   =    2.347    core radius for proj-oper                                                   
   RAUG   =    1.300    factor for augmentation sphere                                              
   RDEP   =    2.324    radius for radial grids                                                     
   RDEPT  =    1.788    core radius for aug-charge                                                  
                                                                                                    
   Atomic configuration                                                                             
    9 entries                                                                                       
     n  l   j            E        occ.                                                              
     1  0  0.50     -9524.6913   2.0000                                                             
     2  0  0.50     -1158.1882   2.0000                                                             
     2  1  1.50     -1003.8506   6.0000                                                             
     3  0  0.50      -129.2194   2.0000                                                             
     3  1  1.50       -83.3890   6.0000                                                             
     3  2  2.50       -10.1410  10.0000                                                             
     4  0  0.50        -5.9785   2.0000                                                             
     4  1  0.50        -4.0817   0.0000                                                             
     4  3  2.50        -1.3606   0.0000                                                             
   Description                                                                                      
     l       E           TYP  RCUT    TYP  RCUT                                                     
     2    -10.1410010     23  2.300                                                                 
     2    -11.5015836     23  2.300                                                                 
     0     -5.9785163     23  2.300                                                                 
     0      1.1858015     23  2.300                                                                 
     1     -2.7211652     23  2.300                                                                 
     1     13.2444212     23  2.300                                                                 
  local pseudopotential read in
  partial core-charges read in
  partial kinetic energy density read in
  atomic valenz-charges read in
  non local Contribution for L=           2  read in
    real space projection operators read in
  non local Contribution for L=           2  read in
    real space projection operators read in
  non local Contribution for L=           0  read in
    real space projection operators read in
  non local Contribution for L=           0  read in
    real space projection operators read in
  non local Contribution for L=           1  read in
    real space projection operators read in
  non local Contribution for L=           1  read in
    real space projection operators read in
    PAW grid and wavefunctions read in

   number of l-projection  operators is LMAX  =           6
   number of lm-projection operators is LMMAX =          18

 POTCAR:    PAW_PBE S 06Sep2000                   
   SHA256 =  0fc7481fb0695f01bdc6462160264c5c84044ae9ec85a907d398b887a2bc3132 S/POTCAR              
   COPYR  = (c) Copyright 06Sep2000 Georg Kresse                                                    
   COPYR  = This file is part of the software VASP. Any use, copying, and all other rights are regul
   COPYR  = If you do not have a valid VASP license, you may not use, copy or distribute this file. 
   VRHFIN =S : s2p4                                                                                 
   LEXCH  = PE                                                                                      
   EATOM  =   276.8230 eV,   20.3459 Ry                                                             
                                                                                                    
   TITEL  = PAW_PBE S 06Sep2000                                                                     
   LULTRA =        F    use ultrasoft PP ?                                                          
   IUNSCR =        1    unscreen: 0-lin 1-nonlin 2-no                                               
   RPACOR =    1.500    partial core radius                                                         
   POMASS =   32.066; ZVAL   =    6.000    mass and valenz                                          
   RCORE  =    1.900    outmost cutoff radius                                                       
   RWIGS  =    2.200; RWIGS  =    1.164    wigner-seitz radius (au A)                               
   ENMAX  =  258.689; ENMIN  =  194.016 eV                                                          
   ICORE  =        2    local potential                                                             
   LCOR   =        T    correct aug charges                                                         
   LPAW   =        T    paw PP                                                                      
   EAUG   =  335.092                                                                                
   DEXC   =    0.000                                                                                
   RMAX   =    1.942    core radius for proj-oper                                                   
   RAUG   =    1.300    factor for augmentation sphere                                              
   RDEP   =    1.954    radius for radial grids                                                     
   RDEPT  =    1.744    core radius for aug-charge                                                  
                                                                                                    
   Atomic configuration                                                                             
    6 entries                                                                                       
     n  l   j            E        occ.                                                              
     1  0  0.50     -2405.8406   2.0000                                                             
     2  0  0.50      -211.7007   2.0000                                                             
     2  1  1.50      -156.4958   6.0000                                                             
     3  0  0.50       -17.2562   2.0000                                                             
     3  1  0.50        -7.0085   4.0000                                                             
     3  2  1.50        -6.8029   0.0000                                                             
   Description                                                                                      
     l       E           TYP  RCUT    TYP  RCUT                                                     
     0    -17.2561641     23  1.900                                                                 
     0    -15.8743224     23  1.900                                                                 
     1     -7.0085400     23  1.900                                                                 
     1     -2.7779785     23  1.900                                                                 
     2     -6.8029130     23  1.900                                                                 
  local pseudopotential read in
  partial core-charges read in
  partial kinetic energy density read in
  atomic valenz-charges read in
  non local Contribution for L=           0  read in
    real space projection operators read in
  non local Contribution for L=           0  read in
    real space projection operators read in
  non local Contribution for L=           1  read in
    real space projection operators read in
  non local Contribution for L=           1  read in
    real space projection operators read in
    PAW grid and wavefunctions read in

   number of l-projection  operators is LMAX  =           4
   number of lm-projection operators is LMMAX =           8

  PAW_PBE Zn 06Sep2000                  :
 energy of atom  1       EATOM=-1748.8345
 kinetic energy error for atom=    0.0029 (will be added to EATOM!!)
  PAW_PBE S 06Sep2000                   :
 energy of atom  2       EATOM= -276.8230
 kinetic energy error for atom=    0.0016 (will be added to EATOM!!)


 POSCAR: Zn S
  positions in cartesian coordinates
  velocities in cartesian coordinates


 exchange-correlation table for PE
   RHO(1)=    0.500       N(1)  =     2000
   RHO(2)=  100.500       N(2)  =     4000



--------------------------------------------------------------------------------------------------------


 ion  position               nearest neighbor table
   1  0.333  0.667  0.000-   4 2.24   4 2.24   4 2.24   3 2.24
   2  0.667  0.333  0.500-   3 2.24   3 2.24   3 2.24   4 2.24
   3  0.333  0.667  0.375-   2 2.24   2 2.24   2 2.24   1 2.24
   4  0.667  0.333  0.875-   1 2.24   1 2.24   1 2.24   2 2.24

  LATTYP: Found a hexagonal cell.
 ALAT       =     3.6562124251
 C/A-ratio  =     1.6395977843
  
  Lattice vectors:
  
 A1 = (   1.8281062125,  -3.1663728417,  -0.0000000000)
 A2 = (   1.8281062125,   3.1663728417,   0.0000000000)
 A3 = (   0.0000000000,   0.0000000000,   5.9947177912)


Analysis of symmetry for initial positions (statically):
=====================================================================
 Subroutine PRICEL returns:
 Original cell was already a primitive cell.
 

 Routine SETGRP: Setting up the symmetry group for a 
 hexagonal supercell.


 Subroutine GETGRP returns: Found 12 space group operations
 (whereof  6 operations were pure point group operations)
 out of a pool of 24 trial point group operations.


The static configuration has the point symmetry C_3v.
 The point group associated with its full space group is C_6v.


Analysis of symmetry for dynamics (positions and initial velocities):
=====================================================================
 Subroutine PRICEL returns:
 Original cell was already a primitive cell.
 

 Routine SETGRP: Setting up the symmetry group for a 
 hexagonal supercell.


 Subroutine GETGRP returns: Found 12 space group operations
 (whereof  6 operations were pure point group operations)
 out of a pool of 24 trial point group operations.


The dynamic configuration has the point symmetry C_3v.
 The point group associated with its full space group is C_6v.


 Subroutine INISYM returns: Found 12 space group operations
 (whereof  6 operations are pure point group operations),
 and found     1 'primitive' translations


----------------------------------------------------------------------------------------

                                     Primitive cell                                     

  volume of cell :      69.4004

  direct lattice vectors                    reciprocal lattice vectors
     1.828106213 -3.166372842 -0.000000000     0.273507084 -0.157909389  0.000000000
     1.828106213  3.166372842  0.000000000     0.273507084  0.157909389 -0.000000000
     0.000000000  0.000000000  5.994717791     0.000000000 -0.000000000  0.166813524

  length of vectors
     3.656212425  3.656212425  5.994717791     0.315818778  0.315818778  0.166813524

  position of ions in fractional coordinates (direct lattice)
     0.333333333  0.666666667  0.000260133
     0.666666667  0.333333333  0.500260133
     0.333333333  0.666666667  0.374739867
     0.666666667  0.333333333  0.874739867

  ion indices of the primitive-cell ions
   primitive index   ion index
                 1           1
                 2           2
                 3           3
                 4           4

----------------------------------------------------------------------------------------



 KPOINTS: Automatic kpoint scheme                 

Automatic generation of k-mesh.
 Grid dimensions read from file:
 generate k-points for:    6    6    4

 Generating k-lattice:

  Cartesian coordinates                     Fractional coordinates (reciprocal lattice)
     0.045584514 -0.026318231  0.000000000     0.166666667 -0.000000000  0.000000000
     0.045584514  0.026318231 -0.000000000    -0.000000000  0.166666667  0.000000000
     0.000000000 -0.000000000  0.041703381     0.000000000  0.000000000  0.250000000

  Length of vectors
     0.052636463  0.052636463  0.041703381

  Shift w.r.t. Gamma in fractional coordinates (k-lattice)
     0.000000000  0.000000000  0.000000000

 
 Subroutine IBZKPT returns following result:
 ===========================================
 
 Found     21 irreducible k-points:
 
 Following reciprocal coordinates:
            Coordinates               Weight
  0.000000  0.000000  0.000000      1.000000
  0.166667  0.000000  0.000000      6.000000
  0.333333  0.000000  0.000000      6.000000
  0.500000  0.000000  0.000000      3.000000
  0.166667  0.166667  0.000000      6.000000
  0.333333  0.166667  0.000000     12.000000
  0.333333  0.333333  0.000000      2.000000
  0.000000  0.000000  0.250000      2.000000
  0.166667  0.000000  0.250000     12.000000
  0.333333  0.000000  0.250000     12.000000
  0.500000  0.000000  0.250000      6.000000
  0.166667  0.166667  0.250000     12.000000
  0.333333  0.166667  0.250000     24.000000
  0.333333  0.333333  0.250000      4.000000
  0.000000  0.000000  0.500000      1.000000
  0.166667  0.000000  0.500000      6.000000
  0.333333  0.000000  0.500000      6.000000
  0.500000  0.000000  0.500000      3.000000
  0.166667  0.166667  0.500000      6.000000
  0.333333  0.166667  0.500000     12.000000
  0.333333  0.333333  0.500000      2.000000
 
 Following cartesian coordinates:
            Coordinates               Weight
  0.000000  0.000000  0.000000      1.000000
  0.045585 -0.026318  0.000000      6.000000
  0.091169 -0.052636  0.000000      6.000000
  0.136754 -0.078955  0.000000      3.000000
  0.091169 -0.000000  0.000000      6.000000
  0.136754 -0.026318  0.000000     12.000000
  0.182338 -0.000000  0.000000      2.000000
  0.000000  0.000000  0.041703      2.000000
  0.045585 -0.026318  0.041703     12.000000
  0.091169 -0.052636  0.041703     12.000000
  0.136754 -0.078955  0.041703      6.000000
  0.091169 -0.000000  0.041703     12.000000
  0.136754 -0.026318  0.041703     24.000000
  0.182338 -0.000000  0.041703      4.000000
  0.000000  0.000000  0.083407      1.000000
  0.045585 -0.026318  0.083407      6.000000
  0.091169 -0.052636  0.083407      6.000000
  0.136754 -0.078955  0.083407      3.000000
  0.091169 -0.000000  0.083407      6.000000
  0.136754 -0.026318  0.083407     12.000000
  0.182338 -0.000000  0.083407      2.000000
 


--------------------------------------------------------------------------------------------------------




 Dimension of arrays:
   k-points           NKPTS =     21   k-points in BZ     NKDIM =     21   number of bands    NBANDS=     28
   number of dos      NEDOS =    301   number of ions     NIONS =      4
   non local maximal  LDIM  =      6   non local SUM 2l+1 LMDIM =     18
   total plane-waves  NPLWV =  37632
   max r-space proj   IRMAX =      1   max aug-charges    IRDMAX=  17281
   dimension x,y,z NGX =    28 NGY =   28 NGZ =   48
   dimension x,y,z NGXF=    56 NGYF=   56 NGZF=   96
   support grid    NGXF=    56 NGYF=   56 NGZF=   96
   ions per type =               2   2
   NGX,Y,Z   is equivalent  to a cutoff of  12.73, 12.73, 13.31 a.u.
   NGXF,Y,Z  is equivalent  to a cutoff of  25.46, 25.46, 26.62 a.u.

 SYSTEM =  unknown system                          
 POSCAR =  Zn S                                    

 Startparameter for this run:
   NWRITE =      2    write-flag & timer
   PREC   = accura    normal or accurate (medium, high low for compatibility)
   ISTART =      0    job   : 0-new  1-cont  2-samecut
   ICHARG =      2    charge: 1-file 2-atom 10-const
   ISPIN  =      1    spin polarized calculation?
   LNONCOLLINEAR =      F non collinear calculations
   LSORBIT =      F    spin-orbit coupling
   INIWAV =      1    electr: 0-lowe 1-rand  2-diag
   LASPH  =      F    aspherical Exc in radial PAW
 Electronic Relaxation 1
   ENCUT  =  520.0 eV  38.22 Ry    6.18 a.u.   6.80  6.80 11.15*2*pi/ulx,y,z
   ENINI  =  520.0     initial cutoff
   ENAUG  =  575.9 eV  augmentation charge cutoff
   NELM   =    120;   NELMIN=  8; NELMDL= -5     # of ELM steps 
   EDIFF  = 0.1E-05   stopping-criterion for ELM
   LREAL  =      F    real-space projection
   NLSPLINE    = F    spline interpolate recip. space projectors
   LCOMPAT=      F    compatible to vasp.4.4
   GGA_COMPAT  = T    GGA compatible to vasp.4.4-vasp.4.6
   LMAXPAW     = -100 max onsite density
   LMAXMIX     =    2 max onsite mixed and CHGCAR
   VOSKOWN=      0    Vosko Wilk Nusair interpolation
   ROPT   =    0.00000   0.00000
 Ionic relaxation
   EDIFFG = -.1E-02   stopping-criterion for IOM
   NSW    =    200    number of steps for IOM
   NBLOCK =      1;   KBLOCK =    200    inner block; outer block 
   IBRION =      1    ionic relax: 0-MD 1-quasi-New 2-CG
   NFREE  =      0    steps in history (QN), initial steepest desc. (CG)
   ISIF   =      2    stress and relaxation
   IWAVPR =     11    prediction:  0-non 1-charg 2-wave 3-comb
   ISYM   =      2    0-nonsym 1-usesym 2-fastsym
   LCORR  =      T    Harris-Foulkes like correction to forces

   POTIM  = 0.5000    time-step for ionic-motion
   TEIN   =    0.0    initial temperature
   TEBEG  =    0.0;   TEEND  =   0.0 temperature during run
   SMASS  =  -3.00    Nose mass-parameter (am)
   estimated Nose-frequenzy (Omega)   =  0.10E-29 period in steps = 0.13E+47 mass=  -0.305E-27a.u.
   SCALEE = 1.0000    scale energy and forces
   NPACO  =    256;   APACO  = 10.0  distance and # of slots for P.C.
   PSTRESS=    0.0 pullay stress

  Mass of Ions in am
   POMASS =  65.39 32.07
  Ionic Valenz
   ZVAL   =  12.00  6.00
  Atomic Wigner-Seitz radii
   RWIGS  =  -1.00 -1.00
  virtual crystal weights 
   VCA    =   1.00  1.00
   NELECT =      36.0000    total number of electrons
   NUPDOWN=      -1.0000    fix difference up-down

 DOS related values:
   EMIN   =  10.00;   EMAX   =-10.00  energy-range for DOS
   EFERMI =   0.00;   METHOD = LEGACY      
   ISMEAR =     0;   SIGMA  =   0.03  broadening in eV -4-tet -1-fermi 0-gaus

 Electronic relaxation 2 (details)
   IALGO  =     38    algorithm
   LDIAG  =      T    sub-space diagonalisation (order eigenvalues)
   LSUBROT=      F    optimize rotation matrix (better conditioning)
   TURBO    =      0    0=normal 1=particle mesh
   IRESTART =      0    0=no restart 2=restart with 2 vectors
   NREBOOT  =      0    no. of reboots
   NMIN     =      0    reboot dimension
   EREF     =   0.00    reference energy to select bands
   IMIX   =      4    mixing-type and parameters
     AMIX     =   0.40;   BMIX     =  1.00
     AMIX_MAG =   1.60;   BMIX_MAG =  1.00
     AMIN     =   0.10
     WC   =   100.;   INIMIX=   1;  MIXPRE=   1;  MAXMIX= -45

 Intra band minimization:
   WEIMIN = 0.0010     energy-eigenvalue tresh-hold
   EBREAK =  0.89E-08  absolut break condition
   DEPER  =   0.30     relativ break condition  

   TIME   =   0.40     timestep for ELM

  volume/ion in A,a.u.               =      17.35       117.08
  Fermi-wavevector in a.u.,A,eV,Ry     =   1.315391  2.485729 23.541534  1.730254
  Thomas-Fermi vector in A             =   2.445577

 Write flags
   LWAVE        =      T    write WAVECAR
   LDOWNSAMPLE  =      F    k-point downsampling of WAVECAR
   LCHARG       =      T    write CHGCAR
   LVTOT        =      F    write LOCPOT, total local potential
   LVHAR        =      F    write LOCPOT, Hartree potential only
   WRT_POTENTIAL= false  ! write potential to hdf5 file
   LELF         =      F    write electronic localiz. function (ELF)
   LORBIT       =      0    0 simple, 1 ext, 2 COOP (PROOUT), +10 PAW based schemes


 Dipole corrections
   LMONO      =      F    monopole corrections only (constant potential shift)
   LDIPOL     =      F    correct potential (dipole corrections)
   IDIPOL     =      0    1-x, 2-y, 3-z, 4-all directions 
   EPSILON    =  1.0000000 bulk dielectric constant
   LVACPOTAV  =      F  vacuum potentials using an averaging scheme for the charge density
   VACPOTFLAT =  0.1000000 required flatness to determine vacuum potential
 Exchange correlation treatment:
   GGA     = PE    functional components
   XC_C    = 1    coefficients multiplying the functional components
   LIBXC   =     F    Libxc                    
   VOSKOWN =     0    Vosko Wilk Nusair interpolation
   LHFCALC =     F    Hartree Fock is set to
   LHFONE  =     F    Hartree Fock one center treatment
   AEXX    =    0.0000 exact exchange contribution

 Parameters of functionals:
   PE:
     No parameter

 Van der Waals corrections
   IVDW    =     0    specifies the selected vdW correction

 Linear response parameters
   LEPSILON=     F    determine dielectric tensor
   LRPA    =     F    only Hartree local field effects (RPA)
   LNABLA  =     F    use nabla operator in PAW spheres
   LVEL    =     F    velocity operator in full k-point grid
   CSHIFT  =0.1000    complex shift for real part using Kramers Kronig
   OMEGAMAX=  -1.0    maximum frequency
   DEG_THRESHOLD= 0.2000000E-02 threshold for treating states as degnerate
   RTIME   =   -0.100 relaxation time in fs
  (WPLASMAI=    0.000 imaginary part of plasma frequency in eV, 0.658/RTIME)
   DFIELD  = 0.0000000 0.0000000 0.0000000 field for delta impulse in time

  Optional k-point grid parameters
   LKPOINTS_OPT  =     F    use optional k-point grid
   KPOINTS_OPT_MODE=     1    mode for optional k-point grid

 Orbital magnetization related:
   ORBITALMAG=     F  switch on orbital magnetization
   LCHIMAG   =     F  perturbation theory with respect to B field
   DQ        =  0.001000  dq finite difference perturbation B field
   LLRAUG    =     F  two centre corrections for induced B field
   LBONE     =     F  B-component reconstruction in AE one-centre
   LVGVCALC  =     T  calculate vGv susceptibility
   LVGVAPPL  =     F  apply vGv susceptibility instead of pGv for G=0

 Random number generation:
   RANDOM_GENERATOR = DEFAULT
   PCG_SEED         = not used


--------------------------------------------------------------------------------------------------------


 quasi-Newton-method for relaxation of ions
 charge density and potential will be updated during run
 non-spin polarized calculation
 Variant of blocked Davidson
 Davidson routine will perform the subspace rotation
 perform sub-space diagonalisation
    after iterative eigenvector-optimisation
 modified Broyden-mixing scheme, WC =      100.0
 initial mixing is a Kerker type mixing with AMIX =  0.4000 and BMIX =      1.0000
 Hartree-type preconditioning will be used
 using additional bands           10
 reciprocal scheme for non local part
 use partial core corrections
 calculate Harris-corrections to forces   (improved forces if not selfconsistent)
 use gradient corrections 
 use of overlap-Matrix (Vanderbilt PP)
 Gauss-broadening in eV      SIGMA  =   0.03


--------------------------------------------------------------------------------------------------------


  energy-cutoff  :      520.00
  volume of cell :       69.40
      direct lattice vectors                 reciprocal lattice vectors
     1.828106213 -3.166372842 -0.000000000     0.273507084 -0.157909389  0.000000000
     1.828106213  3.166372842  0.000000000     0.273507084  0.157909389 -0.000000000
     0.000000000  0.000000000  5.994717791     0.000000000 -0.000000000  0.166813524

  length of vectors
     3.656212425  3.656212425  5.994717791     0.315818778  0.315818778  0.166813524



 k-points in units of 2pi/SCALE and weight: Automatic kpoint scheme                 
   0.00000000 -0.00000000  0.00000000       0.007
   0.04558451 -0.02631823  0.00000000       0.042
   0.09116903 -0.05263646  0.00000000       0.042
   0.13675354 -0.07895469  0.00000000       0.021
   0.09116903  0.00000000  0.00000000       0.042
   0.13675354 -0.02631823  0.00000000       0.083
   0.18233806  0.00000000  0.00000000       0.014
   0.00000000 -0.00000000  0.04170338       0.014
   0.04558451 -0.02631823  0.04170338       0.083
   0.09116903 -0.05263646  0.04170338       0.083
   0.13675354 -0.07895469  0.04170338       0.042
   0.09116903  0.00000000  0.04170338       0.083
   0.13675354 -0.02631823  0.04170338       0.167
   0.18233806  0.00000000  0.04170338       0.028
   0.00000000 -0.00000000  0.08340676       0.007
   0.04558451 -0.02631823  0.08340676       0.042
   0.09116903 -0.05263646  0.08340676       0.042
   0.13675354 -0.07895469  0.08340676       0.021
   0.09116903  0.00000000  0.08340676       0.042
   0.13675354 -0.02631823  0.08340676       0.083
   0.18233806  0.00000000  0.08340676       0.014

 k-points in reciprocal lattice and weights: Automatic kpoint scheme                 
   0.00000000  0.00000000  0.00000000       0.007
   0.16666667  0.00000000  0.00000000       0.042
   0.33333333  0.00000000  0.00000000       0.042
   0.50000000  0.00000000  0.00000000       0.021
   0.16666667  0.16666667  0.00000000       0.042
   0.33333333  0.16666667  0.00000000       0.083
   0.33333333  0.33333333  0.00000000       0.014
   0.00000000  0.00000000  0.25000000       0.014
   0.16666667  0.00000000  0.25000000       0.083
   0.33333333  0.00000000  0.25000000       0.083
   0.50000000  0.00000000  0.25000000       0.042
   0.16666667  0.16666667  0.25000000       0.083
   0.33333333  0.16666667  0.25000000       0.167
   0.33333333  0.33333333  0.25000000       0.028
   0.00000000  0.00000000  0.50000000       0.007
   0.16666667  0.00000000  0.50000000       0.042
   0.33333333  0.00000000  0.50000000       0.042
   0.50000000  0.00000000  0.50000000       0.021
   0.16666667  0.16666667  0.50000000       0.042
   0.33333333  0.16666667  0.50000000       0.083
   0.33333333  0.33333333  0.50000000       0.014

 position of ions in fractional coordinates (direct lattice) 
   0.33333333  0.66666667  0.00026013
   0.66666667  0.33333333  0.50026013
   0.33333333  0.66666667  0.37473987
   0.66666667  0.33333333  0.87473987

 position of ions in cartesian coordinates  (Angst):
   1.82810621  1.05545761  0.00155943
   1.82810621 -1.05545761  2.99891832
   1.82810621  1.05545761  2.24645974
   1.82810621 -1.05545761  5.24381864



--------------------------------------------------------------------------------------------------------


 k-point     1 :   0.0000 0.0000 0.0000  plane waves:    1823
 k-point     2 :   0.1667 0.0000 0.0000  plane waves:    1860
 k-point     3 :   0.3333 0.0000 0.0000  plane waves:    1874
 k-point     4 :   0.5000 0.0000 0.0000  plane waves:    1882
 k-point     5 :   0.1667 0.1667 0.0000  plane waves:    1865
 k-point     6 :   0.3333 0.1667 0.0000  plane waves:    1870
 k-point     7 :   0.3333 0.3333 0.0000  plane waves:    1869
 k-point     8 :   0.0000 0.0000 0.2500  plane waves:    1864
 k-point     9 :   0.1667 0.0000 0.2500  plane waves:    1861
 k-point    10 :   0.3333 0.0000 0.2500  plane waves:    1866
 k-point    11 :   0.5000 0.0000 0.2500  plane waves:    1870
 k-point    12 :   0.1667 0.1667 0.2500  plane waves:    1865
 k-point    13 :   0.3333 0.1667 0.2500  plane waves:    1870
 k-point    14 :   0.3333 0.3333 0.2500  plane waves:    1878
 k-point    15 :   0.0000 0.0000 0.5000  plane waves:    1870
 k-point    16 :   0.1667 0.0000 0.5000  plane waves:    1868
 k-point    17 :   0.3333 0.0000 0.5000  plane waves:    1866
 k-point    18 :   0.5000 0.0000 0.5000  plane waves:    1868
 k-point    19 :   0.1667 0.1667 0.5000  plane waves:    1872
 k-point    20 :   0.3333 0.1667 0.5000  plane waves:    1874
 k-point    21 :   0.3333 0.3333 0.5000  plane waves:    1878

 maximum and minimum number of plane-waves per node :      1882     1823

 maximum number of plane-waves:      1882
 maximum index in each direction: 
   IXMAX=    6   IYMAX=    6   IZMAX=   11
   IXMIN=   -7   IYMIN=   -7   IZMIN=  -11


 serial   3D FFT for wavefunctions
 parallel 3D FFT for charge:
    minimum data exchange during FFTs selected (reduces bandwidth)


 total amount of memory used by VASP MPI-rank0    46553. kBytes
=======================================================================

   base      :      30000. kBytes
   nonl-proj :      11551. kBytes
   fftplans  :        894. kBytes
   grid      :       2739. kBytes
   one-center:         62. kBytes
   wavefun   :       1307. kBytes

     INWAV:  cpu time      0.0000: real time      0.0000
 Broyden mixing: mesh for mixing (old mesh)
   NGX = 13   NGY = 13   NGZ = 23
  (NGX  = 56   NGY  = 56   NGZ  = 96)
  gives a total of   3887 points

 initial charge density was supplied:
 charge density of overlapping atoms calculated
 number of electron      36.0000000 magnetization 
 keeping initial charge density in first step


--------------------------------------------------------------------------------------------------------


 Maximum index for augmentation-charges         1182 (set IRDMAX)


--------------------------------------------------------------------------------------------------------


 First call to EWALD:  gamma=   0.431
 Maximum number of real-space cells 3x 3x 2
 Maximum number of reciprocal cells 2x 2x 4

    FEWALD:  cpu time      0.1638: real time      0.1903


--------------------------------------- Ionic step        1  -------------------------------------------




--------------------------------------- Iteration      1(   1)  ---------------------------------------


    POTLOK:  cpu time      0.2028: real time      0.2397
    SETDIJ:  cpu time      0.0227: real time      0.0225
     EDDAV:  cpu time      6.4042: real time      6.4236
       DOS:  cpu time      0.0012: real time      0.0012
    --------------------------------------------
      LOOP:  cpu time      6.6308: real time      6.6871

 eigenvalue-minimisations  :  1176
 total energy-change (2. order) : 0.1864420E+03  (-0.1820906E+04)
 number of electron      36.0000000 magnetization 
 augmentation part       36.0000000 magnetization 

 Free energy of the ion-electron system (eV)
  ---------------------------------------------------
  alpha Z        PSCENC =       162.93832129
  Ewald energy   TEWEN  =     -2613.30864095
  -Hartree energ DENC   =     -1323.28834149
  -exchange      EXHF   =         0.00000000
  -V(xc)+E(xc)   XCENC  =       139.91474729
  PAW double counting   =      3345.42656771    -3694.17617221
  entropy T*S    EENTRO =        -0.00127124
  eigenvalues    EBANDS =       117.63079797
  atomic energy  EATOM  =      4051.30602026
  Solvation  Ediel_sol  =         0.00000000
  ---------------------------------------------------
  free energy    TOTEN  =       186.44202865 eV

  energy without entropy =      186.44329988  energy(sigma->0) =      186.44266426


--------------------------------------------------------------------------------------------------------




--------------------------------------- Iteration      1(   2)  ---------------------------------------


     EDDAV:  cpu time      8.8813: real time      8.9828
       DOS:  cpu time      0.0002: real time      0.0002
    --------------------------------------------
      LOOP:  cpu time      8.8814: real time      8.9829

 eigenvalue-minimisations  :  1344
 total energy-change (2. order) :-0.1891845E+03  (-0.1829102E+03)
 number of electron      36.0000000 magnetization 
 augmentation part       36.0000000 magnetization 

 Free energy of the ion-electron system (eV)
  ---------------------------------------------------
  alpha Z        PSCENC =       162.93832129
  Ewald energy   TEWEN  =     -2613.30864095
  -Hartree energ DENC   =     -1323.28834149
  -exchange      EXHF   =         0.00000000
  -V(xc)+E(xc)   XCENC  =       139.91474729
  PAW double counting   =      3345.42656771    -3694.17617221
  entropy T*S    EENTRO =        -0.00000000
  eigenvalues    EBANDS =       -71.55499996
  atomic energy  EATOM  =      4051.30602026
  Solvation  Ediel_sol  =         0.00000000
  ---------------------------------------------------
  free energy    TOTEN  =        -2.74249806 eV

  energy without entropy =       -2.74249806  energy(sigma->0) =       -2.74249806


--------------------------------------------------------------------------------------------------------




--------------------------------------- Iteration      1(   3)  ---------------------------------------


     EDDAV:  cpu time     13.3045: real time     15.7765
       DOS:  cpu time      0.0001: real time      0.0001
    --------------------------------------------
      LOOP:  cpu time     13.3046: real time     15.7766

 eigenvalue-minimisations  :  1470
 total energy-change (2. order) :-0.1125145E+02  (-0.1122083E+02)
 number of electron      36.0000000 magnetization 
 augmentation part       36.0000000 magnetization 

 Free energy of the ion-electron system (eV)
  ---------------------------------------------------
  alpha Z        PSCENC =       162.93832129
  Ewald energy   TEWEN  =     -2613.30864095
  -Hartree energ DENC   =     -1323.28834149
  -exchange      EXHF   =         0.00000000
  -V(xc)+E(xc)   XCENC  =       139.91474729
  PAW double counting   =      3345.42656771    -3694.17617221
  entropy T*S    EENTRO =        -0.00000000
  eigenvalues    EBANDS =       -82.80645384
  atomic energy  EATOM  =      4051.30602026
  Solvation  Ediel_sol  =         0.00000000
  ---------------------------------------------------
  free energy    TOTEN  =       -13.99395193 eV

  energy without entropy =      -13.99395193  energy(sigma->0) =      -13.99395193


--------------------------------------------------------------------------------------------------------




--------------------------------------- Iteration      1(   4)  ---------------------------------------


     EDDAV:  cpu time     12.5558: real time     13.5735
       DOS:  cpu time      0.0001: real time      0.0001
    --------------------------------------------
      LOOP:  cpu time     12.5559: real time     13.5736

 eigenvalue-minimisations  :  1498
 total energy-change (2. order) :-0.1262170E+00  (-0.1261907E+00)
 number of electron      36.0000000 magnetization 
 augmentation part       36.0000000 magnetization 

 Free energy of the ion-electron system (eV)
  ---------------------------------------------------
  alpha Z        PSCENC =       162.93832129
  Ewald energy   TEWEN  =     -2613.30864095
  -Hartree energ DENC   =     -1323.28834149
  -exchange      EXHF   =         0.00000000
  -V(xc)+E(xc)   XCENC  =       139.91474729
  PAW double counting   =      3345.42656771    -3694.17617221
  entropy T*S    EENTRO =        -0.00000000
  eigenvalues    EBANDS =       -82.93267084
  atomic energy  EATOM  =      4051.30602026
  Solvation  Ediel_sol  =         0.00000000
  ---------------------------------------------------
  free energy    TOTEN  =       -14.12016893 eV

  energy without entropy =      -14.12016893  energy(sigma->0) =      -14.12016893


--------------------------------------------------------------------------------------------------------




--------------------------------------- Iteration      1(   5)  ---------------------------------------


     EDDAV:  cpu time     11.0822: real time     11.7109
       DOS:  cpu time      0.0001: real time      0.0001
    CHARGE:  cpu time      0.2433: real time      0.2492
    MIXING:  cpu time      0.0185: real time      0.0188
    --------------------------------------------
      LOOP:  cpu time     11.3442: real time     11.9791

 eigenvalue-minimisations  :  1456
 total energy-change (2. order) :-0.1736855E-02  (-0.1736806E-02)
 number of electron      36.0000038 magnetization 
 augmentation part       14.1373159 magnetization 

 Broyden mixing:
  rms(total) = 0.12462E+01    rms(broyden)= 0.12462E+01
  rms(prec ) = 0.14713E+01
  weight for this iteration     100.00

 Free energy of the ion-electron system (eV)
  ---------------------------------------------------
  alpha Z        PSCENC =       162.93832129
  Ewald energy   TEWEN  =     -2613.30864095
  -Hartree energ DENC   =     -1323.28834149
  -exchange      EXHF   =         0.00000000
  -V(xc)+E(xc)   XCENC  =       139.91474729
  PAW double counting   =      3345.42656771    -3694.17617221
  entropy T*S    EENTRO =        -0.00000000
  eigenvalues    EBANDS =       -82.93440769
  atomic energy  EATOM  =      4051.30602026
  Solvation  Ediel_sol  =         0.00000000
  ---------------------------------------------------
  free energy    TOTEN  =       -14.12190579 eV

  energy without entropy =      -14.12190579  energy(sigma->0) =      -14.12190579


--------------------------------------------------------------------------------------------------------




--------------------------------------- Iteration      1(   6)  ---------------------------------------


    POTLOK:  cpu time      0.1474: real time      0.1447
    SETDIJ:  cpu time      0.0098: real time      0.0076
     EDDAV:  cpu time     13.5990: real time     15.2943
       DOS:  cpu time      0.0001: real time      0.0001
    CHARGE:  cpu time      0.3074: real time      0.2445
    MIXING:  cpu time      0.0174: real time      0.0173
    --------------------------------------------
      LOOP:  cpu time     14.0811: real time     15.7085

 eigenvalue-minimisations  :  1638
 total energy-change (2. order) : 0.8605174E+00  (-0.1859107E+00)
 number of electron      36.0000038 magnetization 
 augmentation part       14.4017231 magnetization 

 Broyden mixing:
  rms(total) = 0.94024E+00    rms(broyden)= 0.94024E+00
  rms(prec ) = 0.97819E+00
  weight for this iteration     100.00

 eigenvalues of (default mixing * dielectric matrix)
  average eigenvalue GAMMA=   2.3821
  2.3821

 Free energy of the ion-electron system (eV)
  ---------------------------------------------------
  alpha Z        PSCENC =       162.93832129
  Ewald energy   TEWEN  =     -2613.30864095
  -Hartree energ DENC   =     -1307.84966226
  -exchange      EXHF   =         0.00000000
  -V(xc)+E(xc)   XCENC  =       139.73786392
  PAW double counting   =      3715.14927563    -4059.33855872
  entropy T*S    EENTRO =        -0.00000000
  eigenvalues    EBANDS =      -101.89600752
  atomic energy  EATOM  =      4051.30602026
  Solvation  Ediel_sol  =         0.00000000
  ---------------------------------------------------
  free energy    TOTEN  =       -13.26138835 eV

  energy without entropy =      -13.26138835  energy(sigma->0) =      -13.26138835


--------------------------------------------------------------------------------------------------------




--------------------------------------- Iteration      1(   7)  ---------------------------------------


    POTLOK:  cpu time      0.1135: real time      0.1507
    SETDIJ:  cpu time      0.0089: real time      0.0104
     EDDAV:  cpu time      9.3387: real time     10.5234
       DOS:  cpu time      0.0001: real time      0.0001
    CHARGE:  cpu time      0.2601: real time      0.2160
    MIXING:  cpu time      0.0098: real time      0.0083
    --------------------------------------------
      LOOP:  cpu time      9.7311: real time     10.9089

 eigenvalue-minimisations  :  1260
 total energy-change (2. order) : 0.3899986E-01  (-0.1019488E+00)
 number of electron      36.0000038 magnetization 
 augmentation part       14.3609428 magnetization 

 Broyden mixing:
  rms(total) = 0.38605E+00    rms(broyden)= 0.38605E+00
  rms(prec ) = 0.39911E+00
  weight for this iteration     100.00

 eigenvalues of (default mixing * dielectric matrix)
  average eigenvalue GAMMA=   1.7555
  0.8697  2.6412

 Free energy of the ion-electron system (eV)
  ---------------------------------------------------
  alpha Z        PSCENC =       162.93832129
  Ewald energy   TEWEN  =     -2613.30864095
  -Hartree energ DENC   =     -1311.13749268
  -exchange      EXHF   =         0.00000000
  -V(xc)+E(xc)   XCENC  =       140.21386213
  PAW double counting   =      4276.53580652    -4627.71633169
  entropy T*S    EENTRO =        -0.00000000
  eigenvalues    EBANDS =       -92.05393336
  atomic energy  EATOM  =      4051.30602026
  Solvation  Ediel_sol  =         0.00000000
  ---------------------------------------------------
  free energy    TOTEN  =       -13.22238849 eV

  energy without entropy =      -13.22238849  energy(sigma->0) =      -13.22238849


--------------------------------------------------------------------------------------------------------




--------------------------------------- Iteration      1(   8)  ---------------------------------------


    POTLOK:  cpu time      0.1565: real time      0.1420
    SETDIJ:  cpu time      0.0055: real time      0.0054
     EDDAV:  cpu time     12.0499: real time     12.7053
       DOS:  cpu time      0.0001: real time      0.0001
    CHARGE:  cpu time      0.2379: real time      0.2659
    MIXING:  cpu time      0.0079: real time      0.0068
    --------------------------------------------
      LOOP:  cpu time     12.4578: real time     13.1254

 eigenvalue-minimisations  :  1470
 total energy-change (2. order) : 0.3021693E-02  (-0.2132596E-02)
 number of electron      36.0000038 magnetization 
 augmentation part       14.3715336 magnetization 

 Broyden mixing:
  rms(total) = 0.88408E-01    rms(broyden)= 0.88408E-01
  rms(prec ) = 0.98053E-01
  weight for this iteration     100.00

 eigenvalues of (default mixing * dielectric matrix)
  average eigenvalue GAMMA=   1.6003
  2.4962  0.9533  1.3513

 Free energy of the ion-electron system (eV)
  ---------------------------------------------------
  alpha Z        PSCENC =       162.93832129
  Ewald energy   TEWEN  =     -2613.30864095
  -Hartree energ DENC   =     -1308.46097752
  -exchange      EXHF   =         0.00000000
  -V(xc)+E(xc)   XCENC  =       140.15779458
  PAW double counting   =      4635.40169976    -4987.71338591
  entropy T*S    EENTRO =        -0.00000000
  eigenvalues    EBANDS =       -93.54019829
  atomic energy  EATOM  =      4051.30602026
  Solvation  Ediel_sol  =         0.00000000
  ---------------------------------------------------
  free energy    TOTEN  =       -13.21936679 eV

  energy without entropy =      -13.21936679  energy(sigma->0) =      -13.21936679


--------------------------------------------------------------------------------------------------------




--------------------------------------- Iteration      1(   9)  ---------------------------------------


    POTLOK:  cpu time      0.1343: real time      0.1222
    SETDIJ:  cpu time      0.0060: real time      0.0061
     EDDAV:  cpu time     11.1218: real time     12.3943
       DOS:  cpu time      0.0001: real time      0.0001
    CHARGE:  cpu time      0.2579: real time      0.2473
    MIXING:  cpu time      0.0038: real time      0.0079
    --------------------------------------------
      LOOP:  cpu time     11.5239: real time     12.7780

 eigenvalue-minimisations  :  1414
 total energy-change (2. order) : 0.1566974E-02  (-0.9064280E-03)
 number of electron      36.0000038 magnetization 
 augmentation part       14.3736617 magnetization 

 Broyden mixing:
  rms(total) = 0.13506E-01    rms(broyden)= 0.13506E-01
  rms(prec ) = 0.15598E-01
  weight for this iteration     100.00

 eigenvalues of (default mixing * dielectric matrix)
  average eigenvalue GAMMA=   1.3538
  2.4504  1.3764  0.9430  0.6454

 Free energy of the ion-electron system (eV)
  ---------------------------------------------------
  alpha Z        PSCENC =       162.93832129
  Ewald energy   TEWEN  =     -2613.30864095
  -Hartree energ DENC   =     -1307.61237782
  -exchange      EXHF   =         0.00000000
  -V(xc)+E(xc)   XCENC  =       140.10771505
  PAW double counting   =      4723.66980631    -5076.06770093
  entropy T*S    EENTRO =        -0.00000000
  eigenvalues    EBANDS =       -94.25094304
  atomic energy  EATOM  =      4051.30602026
  Solvation  Ediel_sol  =         0.00000000
  ---------------------------------------------------
  free energy    TOTEN  =       -13.21779982 eV

  energy without entropy =      -13.21779982  energy(sigma->0) =      -13.21779982


--------------------------------------------------------------------------------------------------------




--------------------------------------- Iteration      1(  10)  ---------------------------------------


    POTLOK:  cpu time      0.0816: real time      0.1173
    SETDIJ:  cpu time      0.0028: real time      0.0037
     EDDAV:  cpu time     14.3418: real time     14.8791
       DOS:  cpu time      0.0002: real time      0.0002
    CHARGE:  cpu time      0.2315: real time      0.2061
    MIXING:  cpu time      0.0053: real time      0.0057
    --------------------------------------------
      LOOP:  cpu time     14.6631: real time     15.2122

 eigenvalue-minimisations  :  1540
 total energy-change (2. order) :-0.1391578E-03  (-0.5170619E-04)
 number of electron      36.0000038 magnetization 
 augmentation part       14.3730389 magnetization 

 Broyden mixing:
  rms(total) = 0.12330E-01    rms(broyden)= 0.12330E-01
  rms(prec ) = 0.13489E-01
  weight for this iteration     100.00

 eigenvalues of (default mixing * dielectric matrix)
  average eigenvalue GAMMA=   1.5898
  2.3838  0.9756  1.1029  1.7434  1.7434

 Free energy of the ion-electron system (eV)
  ---------------------------------------------------
  alpha Z        PSCENC =       162.93832129
  Ewald energy   TEWEN  =     -2613.30864095
  -Hartree energ DENC   =     -1307.70782279
  -exchange      EXHF   =         0.00000000
  -V(xc)+E(xc)   XCENC  =       140.10953519
  PAW double counting   =      4714.73924607    -5067.10629115
  entropy T*S    EENTRO =        -0.00000000
  eigenvalues    EBANDS =       -94.18830690
  atomic energy  EATOM  =      4051.30602026
  Solvation  Ediel_sol  =         0.00000000
  ---------------------------------------------------
  free energy    TOTEN  =       -13.21793898 eV

  energy without entropy =      -13.21793898  energy(sigma->0) =      -13.21793898


--------------------------------------------------------------------------------------------------------




--------------------------------------- Iteration      1(  11)  ---------------------------------------


    POTLOK:  cpu time      0.1441: real time      0.1760
    SETDIJ:  cpu time      0.0104: real time      0.0104
     EDDAV:  cpu time     10.2434: real time     11.1726
       DOS:  cpu time      0.0001: real time      0.0001
    CHARGE:  cpu time      0.1946: real time      0.2110
    MIXING:  cpu time      0.0066: real time      0.0060
    --------------------------------------------
      LOOP:  cpu time     10.5991: real time     11.5761

 eigenvalue-minimisations  :  1358
 total energy-change (2. order) :-0.1395492E-03  (-0.1124100E-04)
 number of electron      36.0000038 magnetization 
 augmentation part       14.3732679 magnetization 

 Broyden mixing:
  rms(total) = 0.71144E-02    rms(broyden)= 0.71144E-02
  rms(prec ) = 0.83519E-02
  weight for this iteration     100.00

 eigenvalues of (default mixing * dielectric matrix)
  average eigenvalue GAMMA=   1.6248
  2.7756  2.4584  0.9682  0.9682  1.2893  1.2893

 Free energy of the ion-electron system (eV)
  ---------------------------------------------------
  alpha Z        PSCENC =       162.93832129
  Ewald energy   TEWEN  =     -2613.30864095
  -Hartree energ DENC   =     -1307.85728682
  -exchange      EXHF   =         0.00000000
  -V(xc)+E(xc)   XCENC  =       140.11808804
  PAW double counting   =      4697.94580022    -5050.29076813
  entropy T*S    EENTRO =        -0.00000000
  eigenvalues    EBANDS =       -94.06961243
  atomic energy  EATOM  =      4051.30602026
  Solvation  Ediel_sol  =         0.00000000
  ---------------------------------------------------
  free energy    TOTEN  =       -13.21807853 eV

  energy without entropy =      -13.21807853  energy(sigma->0) =      -13.21807853


--------------------------------------------------------------------------------------------------------




--------------------------------------- Iteration      1(  12)  ---------------------------------------


    POTLOK:  cpu time      0.1175: real time      0.1214
    SETDIJ:  cpu time      0.0043: real time      0.0045
     EDDAV:  cpu time     13.0276: real time     13.8938
       DOS:  cpu time      0.0001: real time      0.0001
    CHARGE:  cpu time      0.1689: real time      0.2327
    MIXING:  cpu time      0.0068: real time      0.0067
    --------------------------------------------
      LOOP:  cpu time     13.3252: real time     14.2592

 eigenvalue-minimisations  :  1512
 total energy-change (2. order) :-0.2897127E-04  (-0.9897113E-05)
 number of electron      36.0000038 magnetization 
 augmentation part       14.3728110 magnetization 

 Broyden mixing:
  rms(total) = 0.33014E-02    rms(broyden)= 0.33014E-02
  rms(prec ) = 0.33274E-02
  weight for this iteration     100.00

 eigenvalues of (default mixing * dielectric matrix)
  average eigenvalue GAMMA=   1.5366
  2.6915  2.4001  1.4380  0.9763  0.9763  1.1369  1.1369

 Free energy of the ion-electron system (eV)
  ---------------------------------------------------
  alpha Z        PSCENC =       162.93832129
  Ewald energy   TEWEN  =     -2613.30864095
  -Hartree energ DENC   =     -1307.89610387
  -exchange      EXHF   =         0.00000000
  -V(xc)+E(xc)   XCENC  =       140.11884233
  PAW double counting   =      4700.28997424    -5052.65781469
  entropy T*S    EENTRO =        -0.00000000
  eigenvalues    EBANDS =       -94.00870611
  atomic energy  EATOM  =      4051.30602026
  Solvation  Ediel_sol  =         0.00000000
  ---------------------------------------------------
  free energy    TOTEN  =       -13.21810750 eV

  energy without entropy =      -13.21810750  energy(sigma->0) =      -13.21810750


--------------------------------------------------------------------------------------------------------




--------------------------------------- Iteration      1(  13)  ---------------------------------------


    POTLOK:  cpu time      0.1247: real time      0.1161
    SETDIJ:  cpu time      0.0080: real time      0.0065
     EDDAV:  cpu time     13.4755: real time     14.9303
       DOS:  cpu time      0.0001: real time      0.0001
    --------------------------------------------
      LOOP:  cpu time     13.6084: real time     15.0530

 eigenvalue-minimisations  :  1498
 total energy-change (2. order) :-0.9672608E-06  (-0.8232687E-06)
 number of electron      36.0000038 magnetization 
 augmentation part       14.3728110 magnetization 

 Free energy of the ion-electron system (eV)
  ---------------------------------------------------
  alpha Z        PSCENC =       162.93832129
  Ewald energy   TEWEN  =     -2613.30864095
  -Hartree energ DENC   =     -1307.89085004
  -exchange      EXHF   =         0.00000000
  -V(xc)+E(xc)   XCENC  =       140.11880815
  PAW double counting   =      4702.20356173    -5054.56712637
  entropy T*S    EENTRO =        -0.00000000
  eigenvalues    EBANDS =       -94.01820254
  atomic energy  EATOM  =      4051.30602026
  Solvation  Ediel_sol  =         0.00000000
  ---------------------------------------------------
  free energy    TOTEN  =       -13.21810847 eV

  energy without entropy =      -13.21810847  energy(sigma->0) =      -13.21810847


--------------------------------------------------------------------------------------------------------




 average (electrostatic) potential at core
  the test charge radii are     0.9521  0.9698
  (the norm of the test charge is              1.0000)
       1 -35.3541       2 -35.3541       3 -87.6080       4 -87.6080



 E-fermi :   3.5868     XC(G=0): -10.2424     alpha+bet : -9.1607

 val. band max:        3.4219719868   @ k =   0.0000   0.0000   0.0000
 cond. band min:       6.2089703462   @ k =   0.0000   0.0000   0.0000
 fundamental gap:      2.7869983594
 Fermi energy:         3.5868165550

 k-point     1 :       0.0000    0.0000    0.0000
  band No.  band energies     occupation 
      1     -10.7326      2.00000
      2      -9.5441      2.00000
      3      -3.5307      2.00000
      4      -3.5124      2.00000
      5      -3.5124      2.00000
      6      -3.4099      2.00000
      7      -3.4099      2.00000
      8      -2.9318      2.00000
      9      -2.9318      2.00000
     10      -2.8907      2.00000
     11      -2.8232      2.00000
     12      -2.8232      2.00000
     13      -2.5606      2.00000
     14       2.3298      2.00000
     15       2.3298      2.00000
     16       3.3250      2.00000
     17       3.4220      2.00000
     18       3.4220      2.00000
     19       6.2090      0.00000
     20       6.7196      0.00000
     21       9.6032      0.00000
     22       9.6032      0.00000
     23       9.8817      0.00000
     24      11.1370      0.00000
     25      11.1370      0.00000
     26      13.3049      0.00000
     27      13.4539      0.00000
     28      13.4539      0.00000

 k-point     2 :       0.1667    0.0000    0.0000
  band No.  band energies     occupation 
      1     -10.5072      2.00000
      2      -9.4187      2.00000
      3      -3.5492      2.00000
      4      -3.4841      2.00000
      5      -3.4685      2.00000
      6      -3.3902      2.00000
      7      -3.3427      2.00000
      8      -3.0021      2.00000
      9      -2.9649      2.00000
     10      -2.9310      2.00000
     11      -2.8119      2.00000
     12      -2.5625      2.00000
     13      -2.4193      2.00000
     14       0.9278      2.00000
     15       1.8446      2.00000
     16       2.0321      2.00000
     17       3.0181      2.00000
     18       3.1451      2.00000
     19       7.3161      0.00000
     20       7.6492      0.00000
     21       9.1960      0.00000
     22      10.1333      0.00000
     23      10.1893      0.00000
     24      11.1195      0.00000
     25      11.7426      0.00000
     26      12.0734      0.00000
     27      12.8000      0.00000
     28      13.1323      0.00000

 k-point     3 :       0.3333    0.0000    0.0000
  band No.  band energies     occupation 
      1      -9.9563      2.00000
      2      -9.1920      2.00000
      3      -3.5820      2.00000
      4      -3.4346      2.00000
      5      -3.4022      2.00000
      6      -3.2436      2.00000
      7      -3.1972      2.00000
      8      -3.0638      2.00000
      9      -2.9563      2.00000
     10      -2.8875      2.00000
     11      -2.7886      2.00000
     12      -2.4572      2.00000
     13      -1.9155      2.00000
     14      -0.7960      2.00000
     15       0.1175      2.00000
     16       1.0510      2.00000
     17       2.1086      2.00000
     18       2.5991      2.00000
     19       7.1738      0.00000
     20       8.0206      0.00000
     21       8.9452      0.00000
     22      10.3638      0.00000
     23      10.3842      0.00000
     24      12.1085      0.00000
     25      12.3567      0.00000
     26      13.6875      0.00000
     27      14.1956      0.00000
     28      14.6687      0.00000

 k-point     4 :       0.5000    0.0000    0.0000
  band No.  band energies     occupation 
      1      -9.5640      2.00000
      2      -9.1473      2.00000
      3      -3.5574      2.00000
      4      -3.3826      2.00000
      5      -3.3278      2.00000
      6      -3.2161      2.00000
      7      -3.1218      2.00000
      8      -3.0523      2.00000
      9      -2.8385      2.00000
     10      -2.8051      2.00000
     11      -2.7720      2.00000
     12      -2.6642      2.00000
     13      -1.9047      2.00000
     14      -1.2213      2.00000
     15      -0.4741      2.00000
     16       0.6957      2.00000
     17       1.3440      2.00000
     18       2.3396      2.00000
     19       6.9228      0.00000
     20       7.9623      0.00000
     21       8.4160      0.00000
     22      10.2236      0.00000
     23      11.3352      0.00000
     24      11.8920      0.00000
     25      12.8245      0.00000
     26      15.4131      0.00000
     27      16.2343      0.00000
     28      16.7991      0.00000

 k-point     5 :       0.1667    0.1667    0.0000
  band No.  band energies     occupation 
      1     -10.1143      2.00000
      2      -9.2415      2.00000
      3      -3.5279      2.00000
      4      -3.4675      2.00000
      5      -3.4138      2.00000
      6      -3.3326      2.00000
      7      -3.2239      2.00000
      8      -2.9964      2.00000
      9      -2.9927      2.00000
     10      -2.9330      2.00000
     11      -2.7949      2.00000
     12      -2.5053      2.00000
     13      -1.9760      2.00000
     14      -0.1839      2.00000
     15       0.4057      2.00000
     16       1.0647      2.00000
     17       2.3779      2.00000
     18       2.4500      2.00000
     19       8.3713      0.00000
     20       8.6446      0.00000
     21       9.0142      0.00000
     22       9.1704      0.00000
     23      10.6548      0.00000
     24      11.0941      0.00000
     25      12.0098      0.00000
     26      12.7303      0.00000
     27      13.9021      0.00000
     28      14.2508      0.00000

 k-point     6 :       0.3333    0.1667    0.0000
  band No.  band energies     occupation 
      1      -9.5854      2.00000
      2      -9.1366      2.00000
      3      -3.5146      2.00000
      4      -3.3779      2.00000
      5      -3.2900      2.00000
      6      -3.1800      2.00000
      7      -3.0998      2.00000
      8      -3.0762      2.00000
      9      -2.9456      2.00000
     10      -2.8962      2.00000
     11      -2.7515      2.00000
     12      -2.4029      2.00000
     13      -1.9448      2.00000
     14      -0.9004      2.00000
     15      -0.4112      2.00000
     16       0.0387      2.00000
     17       1.4639      2.00000
     18       1.6749      2.00000
     19       7.9107      0.00000
     20       8.4338      0.00000
     21       8.9915      0.00000
     22      10.4879      0.00000
     23      10.9340      0.00000
     24      12.1721      0.00000
     25      12.6976      0.00000
     26      13.5399      0.00000
     27      14.8550      0.00000
     28      15.8220      0.00000

 k-point     7 :       0.3333    0.3333    0.0000
  band No.  band energies     occupation 
      1      -9.2518      2.00000
      2      -9.2518      2.00000
      3      -3.5169      2.00000
      4      -3.2512      2.00000
      5      -3.2512      2.00000
      6      -3.0791      2.00000
      7      -3.0042      2.00000
      8      -3.0042      2.00000
      9      -2.9159      2.00000
     10      -2.9136      2.00000
     11      -2.6436      2.00000
     12      -2.6436      2.00000
     13      -1.3903      2.00000
     14      -1.3903      2.00000
     15      -1.2156      2.00000
     16       0.6180      2.00000
     17       0.6180      2.00000
     18       0.8911      2.00000
     19       7.2679      0.00000
     20       9.8768      0.00000
     21       9.8768      0.00000
     22      11.4574      0.00000
     23      11.5969      0.00000
     24      11.5969      0.00000
     25      13.4966      0.00000
     26      13.4966      0.00000
     27      13.8300      0.00000
     28      15.2354      0.00000

 k-point     8 :       0.0000    0.0000    0.2500
  band No.  band energies     occupation 
      1     -10.5864      2.00000
      2      -9.7534      2.00000
      3      -3.5518      2.00000
      4      -3.5028      2.00000
      5      -3.5028      2.00000
      6      -3.4306      2.00000
      7      -3.4306      2.00000
      8      -3.3719      2.00000
      9      -2.9115      2.00000
     10      -2.9115      2.00000
     11      -2.8345      2.00000
     12      -2.8345      2.00000
     13      -1.4769      2.00000
     14       2.1486      2.00000
     15       2.4760      2.00000
     16       2.4760      2.00000
     17       3.2461      2.00000
     18       3.2461      2.00000
     19       6.8882      0.00000
     20       7.0988      0.00000
     21       9.6371      0.00000
     22       9.6998      0.00000
     23       9.6998      0.00000
     24      10.7379      0.00000
     25      10.7379      0.00000
     26      12.3632      0.00000
     27      14.1017      0.00000
     28      14.1017      0.00000

 k-point     9 :       0.1667    0.0000    0.2500
  band No.  band energies     occupation 
      1     -10.3699      2.00000
      2      -9.6049      2.00000
      3      -3.5767      2.00000
      4      -3.4895      2.00000
      5      -3.4548      2.00000
      6      -3.4285      2.00000
      7      -3.3662      2.00000
      8      -3.3013      2.00000
      9      -2.9318      2.00000
     10      -2.9112      2.00000
     11      -2.8270      2.00000
     12      -2.7989      2.00000
     13      -1.3370      2.00000
     14       1.1163      2.00000
     15       1.4789      2.00000
     16       2.0134      2.00000
     17       2.6271      2.00000
     18       2.9264      2.00000
     19       7.5562      0.00000
     20       8.0037      0.00000
     21       9.2949      0.00000
     22       9.7366      0.00000
     23      10.3327      0.00000
     24      10.4511      0.00000
     25      11.6422      0.00000
     26      12.1770      0.00000
     27      13.2592      0.00000
     28      13.7297      0.00000

 k-point    10 :       0.3333    0.0000    0.2500
  band No.  band energies     occupation 
      1      -9.8503      2.00000
      2      -9.3090      2.00000
      3      -3.6121      2.00000
      4      -3.4957      2.00000
      5      -3.3751      2.00000
      6      -3.2649      2.00000
      7      -3.2299      2.00000
      8      -3.1977      2.00000
      9      -2.9218      2.00000
     10      -2.8759      2.00000
     11      -2.8073      2.00000
     12      -2.6793      2.00000
     13      -1.5322      2.00000
     14      -0.4899      2.00000
     15       0.0724      2.00000
     16       1.2509      2.00000
     17       2.1521      2.00000
     18       2.3331      2.00000
     19       6.9723      0.00000
     20       7.7235      0.00000
     21       9.0891      0.00000
     22       9.9450      0.00000
     23      10.8790      0.00000
     24      11.7737      0.00000
     25      12.7618      0.00000
     26      13.5541      0.00000
     27      13.8024      0.00000
     28      14.8502      0.00000

 k-point    11 :       0.5000    0.0000    0.2500
  band No.  band energies     occupation 
      1      -9.4966      2.00000
      2      -9.1999      2.00000
      3      -3.5945      2.00000
      4      -3.4746      2.00000
      5      -3.3472      2.00000
      6      -3.2014      2.00000
      7      -3.1611      2.00000
      8      -3.0736      2.00000
      9      -2.8342      2.00000
     10      -2.7909      2.00000
     11      -2.6895      2.00000
     12      -2.6494      2.00000
     13      -2.1446      2.00000
     14      -1.5729      2.00000
     15       0.3022      2.00000
     16       0.9103      2.00000
     17       1.6906      2.00000
     18       2.0578      2.00000
     19       6.9002      0.00000
     20       7.0986      0.00000
     21       9.1708      0.00000
     22       9.5121      0.00000
     23      10.8280      0.00000
     24      11.6722      0.00000
     25      13.9971      0.00000
     26      14.5082      0.00000
     27      16.1940      0.00000
     28      16.8688      0.00000

 k-point    12 :       0.1667    0.1667    0.2500
  band No.  band energies     occupation 
      1      -9.9974      2.00000
      2      -9.3807      2.00000
      3      -3.5669      2.00000
      4      -3.4855      2.00000
      5      -3.4032      2.00000
      6      -3.3563      2.00000
      7      -3.2554      2.00000
      8      -3.2298      2.00000
      9      -2.9488      2.00000
     10      -2.8910      2.00000
     11      -2.8108      2.00000
     12      -2.7179      2.00000
     13      -1.2824      2.00000
     14       0.1683      2.00000
     15       0.2376      2.00000
     16       1.0535      2.00000
     17       2.0968      2.00000
     18       2.3812      2.00000
     19       7.8995      0.00000
     20       8.6304      0.00000
     21       9.4272      0.00000
     22       9.4803      0.00000
     23      10.3811      0.00000
     24      10.8542      0.00000
     25      11.9385      0.00000
     26      12.7034      0.00000
     27      13.9527      0.00000
     28      14.4220      0.00000

 k-point    13 :       0.3333    0.1667    0.2500
  band No.  band energies     occupation 
      1      -9.5144      2.00000
      2      -9.1950      2.00000
      3      -3.5255      2.00000
      4      -3.4224      2.00000
      5      -3.3396      2.00000
      6      -3.1994      2.00000
      7      -3.1583      2.00000
      8      -3.1445      2.00000
      9      -2.9080      2.00000
     10      -2.8682      2.00000
     11      -2.7421      2.00000
     12      -2.4773      2.00000
     13      -1.9799      2.00000
     14      -1.1728      2.00000
     15      -0.0400      2.00000
     16       0.5484      2.00000
     17       1.3114      2.00000
     18       1.8407      2.00000
     19       7.6503      0.00000
     20       8.5613      0.00000
     21       9.0490      0.00000
     22       9.7032      0.00000
     23      10.4803      0.00000
     24      12.0982      0.00000
     25      12.8973      0.00000
     26      13.5064      0.00000
     27      14.4278      0.00000
     28      16.0381      0.00000

 k-point    14 :       0.3333    0.3333    0.2500
  band No.  band energies     occupation 
      1      -9.2394      2.00000
      2      -9.2394      2.00000
      3      -3.4694      2.00000
      4      -3.3305      2.00000
      5      -3.3305      2.00000
      6      -3.1589      2.00000
      7      -3.0414      2.00000
      8      -3.0414      2.00000
      9      -2.9359      2.00000
     10      -2.9221      2.00000
     11      -2.5452      2.00000
     12      -2.5452      2.00000
     13      -1.6915      2.00000
     14      -1.6915      2.00000
     15      -0.9299      2.00000
     16       0.5142      2.00000
     17       1.2097      2.00000
     18       1.2097      2.00000
     19       7.9885      0.00000
     20       8.9195      0.00000
     21       8.9195      0.00000
     22      11.1711      0.00000
     23      11.2366      0.00000
     24      11.2366      0.00000
     25      13.5748      0.00000
     26      13.8194      0.00000
     27      14.3172      0.00000
     28      14.3172      0.00000

 k-point    15 :       0.0000    0.0000    0.5000
  band No.  band energies     occupation 
      1     -10.2004      2.00000
      2     -10.2004      2.00000
      3      -3.5556      2.00000
      4      -3.5556      2.00000
      5      -3.4721      2.00000
      6      -3.4721      2.00000
      7      -3.4721      2.00000
      8      -3.4721      2.00000
      9      -2.8687      2.00000
     10      -2.8687      2.00000
     11      -2.8687      2.00000
     12      -2.8687      2.00000
     13       0.2473      2.00000
     14       0.2473      2.00000
     15       2.8464      2.00000
     16       2.8464      2.00000
     17       2.8464      2.00000
     18       2.8464      2.00000
     19       7.3061      0.00000
     20       7.3061      0.00000
     21      10.0902      0.00000
     22      10.0902      0.00000
     23      10.0902      0.00000
     24      10.0902      0.00000
     25      10.5819      0.00000
     26      10.5819      0.00000
     27      15.6855      0.00000
     28      15.6855      0.00000

 k-point    16 :       0.1667    0.0000    0.5000
  band No.  band energies     occupation 
      1     -10.0113      2.00000
      2     -10.0113      2.00000
      3      -3.5870      2.00000
      4      -3.5870      2.00000
      5      -3.4184      2.00000
      6      -3.4184      2.00000
      7      -3.4153      2.00000
      8      -3.4153      2.00000
      9      -2.8667      2.00000
     10      -2.8667      2.00000
     11      -2.8667      2.00000
     12      -2.8667      2.00000
     13       0.1580      2.00000
     14       0.1580      2.00000
     15       1.7694      2.00000
     16       1.7694      2.00000
     17       2.4458      2.00000
     18       2.4458      2.00000
     19       8.1233      0.00000
     20       8.1233      0.00000
     21       9.2922      0.00000
     22       9.2922      0.00000
     23      10.8917      0.00000
     24      10.8917      0.00000
     25      10.9638      0.00000
     26      10.9638      0.00000
     27      14.9591      0.00000
     28      14.9591      0.00000

 k-point    17 :       0.3333    0.0000    0.5000
  band No.  band energies     occupation 
      1      -9.5854      2.00000
      2      -9.5854      2.00000
      3      -3.6175      2.00000
      4      -3.6175      2.00000
      5      -3.3054      2.00000
      6      -3.3054      2.00000
      7      -3.2769      2.00000
      8      -3.2769      2.00000
      9      -2.8449      2.00000
     10      -2.8449      2.00000
     11      -2.8227      2.00000
     12      -2.8227      2.00000
     13      -1.0194      2.00000
     14      -1.0194      2.00000
     15       1.3301      2.00000
     16       1.3301      2.00000
     17       1.7608      2.00000
     18       1.7608      2.00000
     19       7.3207      0.00000
     20       7.3207      0.00000
     21       9.0780      0.00000
     22       9.0780      0.00000
     23      12.1406      0.00000
     24      12.1406      0.00000
     25      12.4147      0.00000
     26      12.4147      0.00000
     27      14.8848      0.00000
     28      14.8848      0.00000

 k-point    18 :       0.5000    0.0000    0.5000
  band No.  band energies     occupation 
      1      -9.3409      2.00000
      2      -9.3409      2.00000
      3      -3.6141      2.00000
      4      -3.6141      2.00000
      5      -3.2567      2.00000
      6      -3.2567      2.00000
      7      -3.1486      2.00000
      8      -3.1486      2.00000
      9      -2.8190      2.00000
     10      -2.8190      2.00000
     11      -2.6174      2.00000
     12      -2.6174      2.00000
     13      -2.0556      2.00000
     14      -2.0556      2.00000
     15       1.4526      2.00000
     16       1.4526      2.00000
     17       1.4664      2.00000
     18       1.4664      2.00000
     19       6.9516      0.00000
     20       6.9516      0.00000
     21       8.5283      0.00000
     22       8.5283      0.00000
     23      12.3971      0.00000
     24      12.3971      0.00000
     25      13.1888      0.00000
     26      13.1888      0.00000
     27      16.3610      0.00000
     28      16.3610      0.00000

 k-point    19 :       0.1667    0.1667    0.5000
  band No.  band energies     occupation 
      1      -9.7003      2.00000
      2      -9.7003      2.00000
      3      -3.5854      2.00000
      4      -3.5854      2.00000
      5      -3.3706      2.00000
      6      -3.3706      2.00000
      7      -3.3134      2.00000
      8      -3.3134      2.00000
      9      -2.8681      2.00000
     10      -2.8681      2.00000
     11      -2.8265      2.00000
     12      -2.8265      2.00000
     13      -0.4971      2.00000
     14      -0.4971      2.00000
     15       1.3408      2.00000
     16       1.3408      2.00000
     17       1.5889      2.00000
     18       1.5889      2.00000
     19       8.2829      0.00000
     20       8.2829      0.00000
     21       9.5267      0.00000
     22       9.5267      0.00000
     23      10.5140      0.00000
     24      10.5140      0.00000
     25      11.9439      0.00000
     26      11.9439      0.00000
     27      14.9568      0.00000
     28      14.9568      0.00000

 k-point    20 :       0.3333    0.1667    0.5000
  band No.  band energies     occupation 
      1      -9.3484      2.00000
      2      -9.3484      2.00000
      3      -3.5359      2.00000
      4      -3.5359      2.00000
      5      -3.2834      2.00000
      6      -3.2834      2.00000
      7      -3.1893      2.00000
      8      -3.1893      2.00000
      9      -2.8658      2.00000
     10      -2.8658      2.00000
     11      -2.6533      2.00000
     12      -2.6533      2.00000
     13      -1.6750      2.00000
     14      -1.6750      2.00000
     15       0.6026      2.00000
     16       0.6026      2.00000
     17       1.6427      2.00000
     18       1.6427      2.00000
     19       7.7451      0.00000
     20       7.7451      0.00000
     21       9.3873      0.00000
     22       9.3873      0.00000
     23      11.0237      0.00000
     24      11.0237      0.00000
     25      12.8542      0.00000
     26      12.8542      0.00000
     27      15.6263      0.00000
     28      15.6263      0.00000

 k-point    21 :       0.3333    0.3333    0.5000
  band No.  band energies     occupation 
      1      -9.2269      2.00000
      2      -9.2269      2.00000
      3      -3.4143      2.00000
      4      -3.4143      2.00000
      5      -3.3343      2.00000
      6      -3.3343      2.00000
      7      -3.0604      2.00000
      8      -3.0604      2.00000
      9      -2.9351      2.00000
     10      -2.9351      2.00000
     11      -2.4370      2.00000
     12      -2.4370      2.00000
     13      -1.9351      2.00000
     14      -1.9351      2.00000
     15      -0.2499      2.00000
     16      -0.2499      2.00000
     17       1.7751      2.00000
     18       1.7751      2.00000
     19       8.0371      0.00000
     20       8.0371      0.00000
     21       9.6843      0.00000
     22       9.6843      0.00000
     23      11.1948      0.00000
     24      11.1948      0.00000
     25      13.2168      0.00000
     26      13.2168      0.00000
     27      14.2679      0.00000
     28      14.2679      0.00000


--------------------------------------------------------------------------------------------------------


 soft charge-density along one line, spin component           1
         0         1         2         3         4         5         6         7         8         9
 total charge-density along one line

 pseudopotential strength for first ion, spin component:           1
 -9.040  -0.000  -0.000   0.002   0.000  -9.447  -0.000  -0.000
 -0.000  -9.039  -0.000   0.000   0.002  -0.000  -9.446  -0.000
 -0.000  -0.000  -9.041  -0.000   0.000  -0.000  -0.000  -9.447
  0.002   0.000  -0.000  -9.039  -0.000   0.002   0.000  -0.000
  0.000   0.002   0.000  -0.000  -9.040   0.000   0.002   0.000
 -9.447  -0.000  -0.000   0.002   0.000  -9.776  -0.000  -0.000
 -0.000  -9.446  -0.000   0.000   0.002  -0.000  -9.775  -0.000
 -0.000  -0.000  -9.447  -0.000   0.000  -0.000  -0.000  -9.776
  0.002   0.000  -0.000  -9.446  -0.000   0.002   0.000  -0.000
  0.000   0.002   0.000  -0.000  -9.447   0.000   0.002   0.000
  0.000   0.000  -0.000  -0.000  -0.000   0.000   0.000  -0.000
  0.000   0.000  -0.000  -0.000  -0.000   0.000   0.000  -0.000
 -0.000   0.002  -0.000   0.000  -0.003  -0.000   0.002  -0.000
  0.000   0.000  -0.003  -0.000   0.000   0.000   0.000  -0.003
 -0.003   0.000   0.000   0.002  -0.000  -0.002   0.000   0.000
 -0.000   0.003  -0.000   0.000  -0.004  -0.000   0.002  -0.000
  0.000   0.000  -0.004  -0.000   0.000   0.000   0.000  -0.003
 -0.004   0.000   0.000   0.003  -0.000  -0.003   0.000   0.000
 total augmentation occupancy for first ion, spin component:           1
  4.058   0.000   0.000  -0.905   0.000  -2.098  -0.000  -0.000   0.910   0.000   0.000  -0.000   0.000  -0.000  -0.723  -0.000
  0.000   3.418   0.000  -0.000  -0.905  -0.000  -1.455  -0.000   0.000   0.910   0.000  -0.000   0.515  -0.000  -0.000  -0.079
  0.000   0.000   4.682  -0.000  -0.000  -0.000  -0.000  -2.721   0.000   0.000   0.009  -0.000   0.000  -0.878  -0.000  -0.000
 -0.905  -0.000  -0.000   3.418  -0.000   0.910   0.000   0.000  -1.455   0.000   0.000   0.000  -0.000   0.000   0.515   0.000
  0.000  -0.905  -0.000  -0.000   4.058  -0.000   0.910   0.000   0.000  -2.098  -0.000   0.000  -0.723   0.000  -0.000   0.111
 -2.098  -0.000  -0.000   0.910  -0.000   2.129   0.000   0.000  -0.916   0.000  -0.000   0.000  -0.000   0.000   0.707   0.000
 -0.000  -1.455  -0.000   0.000   0.910   0.000   1.483   0.000  -0.000  -0.916   0.000   0.000  -0.504   0.000   0.000   0.088
 -0.000  -0.000  -2.721   0.000   0.000   0.000   0.000   2.752  -0.000  -0.000  -0.009   0.001  -0.000   0.859   0.000   0.000
  0.910   0.000   0.000  -1.455  -0.000  -0.916  -0.000  -0.000   1.483   0.000   0.000   0.000   0.000   0.000  -0.504  -0.000
[...]
     23      10.3889      0.00000
     24      10.8530      0.00000
     25      11.9428      0.00000
     26      12.6969      0.00000
     27      13.9509      0.00000
     28      14.4265      0.00000

 k-point    13 :       0.3333    0.1667    0.2500
  band No.  band energies     occupation 
      1      -9.5145      2.00000
      2      -9.1948      2.00000
      3      -3.5260      2.00000
      4      -3.4237      2.00000
      5      -3.3400      2.00000
      6      -3.2001      2.00000
      7      -3.1576      2.00000
      8      -3.1429      2.00000
      9      -2.9079      2.00000
     10      -2.8674      2.00000
     11      -2.7409      2.00000
     12      -2.4768      2.00000
     13      -1.9788      2.00000
     14      -1.1689      2.00000
     15      -0.0395      2.00000
     16       0.5461      2.00000
     17       1.3181      2.00000
     18       1.8363      2.00000
     19       7.6480      0.00000
     20       8.5605      0.00000
     21       9.0475      0.00000
     22       9.7034      0.00000
     23      10.4839      0.00000
     24      12.1002      0.00000
     25      12.8958      0.00000
     26      13.5040      0.00000
     27      14.4253      0.00000
     28      16.0363      0.00000

 k-point    14 :       0.3333    0.3333    0.2500
  band No.  band energies     occupation 
      1      -9.2396      2.00000
      2      -9.2396      2.00000
      3      -3.4707      2.00000
      4      -3.3331      2.00000
      5      -3.3331      2.00000
      6      -3.1574      2.00000
      7      -3.0415      2.00000
      8      -3.0415      2.00000
      9      -2.9348      2.00000
     10      -2.9204      2.00000
     11      -2.5439      2.00000
     12      -2.5439      2.00000
     13      -1.6883      2.00000
     14      -1.6883      2.00000
     15      -0.9271      2.00000
     16       0.5234      2.00000
     17       1.2050      2.00000
     18       1.2050      2.00000
     19       7.9789      0.00000
     20       8.9209      0.00000
     21       8.9209      0.00000
     22      11.1688      0.00000
     23      11.2396      0.00000
     24      11.2396      0.00000
     25      13.5752      0.00000
     26      13.8165      0.00000
     27      14.3194      0.00000
     28      14.3194      0.00000

 k-point    15 :       0.0000    0.0000    0.5000
  band No.  band energies     occupation 
      1     -10.1993      2.00000
      2     -10.1993      2.00000
      3      -3.5605      2.00000
      4      -3.5605      2.00000
      5      -3.4684      2.00000
      6      -3.4684      2.00000
      7      -3.4684      2.00000
      8      -3.4684      2.00000
      9      -2.8686      2.00000
     10      -2.8686      2.00000
     11      -2.8686      2.00000
     12      -2.8686      2.00000
     13       0.2426      2.00000
     14       0.2426      2.00000
     15       2.8455      2.00000
     16       2.8455      2.00000
     17       2.8455      2.00000
     18       2.8455      2.00000
     19       7.3098      0.00000
     20       7.3098      0.00000
     21      10.0935      0.00000
     22      10.0935      0.00000
     23      10.0936      0.00000
     24      10.0936      0.00000
     25      10.5854      0.00000
     26      10.5854      0.00000
     27      15.6841      0.00000
     28      15.6841      0.00000

 k-point    16 :       0.1667    0.0000    0.5000
  band No.  band energies     occupation 
      1     -10.0104      2.00000
      2     -10.0104      2.00000
      3      -3.5882      2.00000
      4      -3.5882      2.00000
      5      -3.4180      2.00000
      6      -3.4180      2.00000
      7      -3.4121      2.00000
      8      -3.4121      2.00000
      9      -2.8669      2.00000
     10      -2.8669      2.00000
     11      -2.8665      2.00000
     12      -2.8665      2.00000
     13       0.1537      2.00000
     14       0.1537      2.00000
     15       1.7697      2.00000
     16       1.7697      2.00000
     17       2.4464      2.00000
     18       2.4464      2.00000
     19       8.1251      0.00000
     20       8.1251      0.00000
     21       9.2943      0.00000
     22       9.2943      0.00000
     23      10.8922      0.00000
     24      10.8922      0.00000
     25      10.9692      0.00000
     26      10.9692      0.00000
     27      14.9544      0.00000
     28      14.9544      0.00000

 k-point    17 :       0.3333    0.0000    0.5000
  band No.  band energies     occupation 
      1      -9.5850      2.00000
      2      -9.5850      2.00000
      3      -3.6175      2.00000
      4      -3.6175      2.00000
      5      -3.3035      2.00000
      6      -3.3035      2.00000
      7      -3.2776      2.00000
      8      -3.2776      2.00000
      9      -2.8443      2.00000
     10      -2.8443      2.00000
     11      -2.8228      2.00000
     12      -2.8228      2.00000
     13      -1.0186      2.00000
     14      -1.0186      2.00000
     15       1.3267      2.00000
     16       1.3267      2.00000
     17       1.7638      2.00000
     18       1.7638      2.00000
     19       7.3197      0.00000
     20       7.3197      0.00000
     21       9.0838      0.00000
     22       9.0838      0.00000
     23      12.1335      0.00000
     24      12.1335      0.00000
     25      12.4158      0.00000
     26      12.4158      0.00000
     27      14.8833      0.00000
     28      14.8833      0.00000

 k-point    18 :       0.5000    0.0000    0.5000
  band No.  band energies     occupation 
      1      -9.3410      2.00000
      2      -9.3410      2.00000
      3      -3.6145      2.00000
      4      -3.6145      2.00000
      5      -3.2556      2.00000
      6      -3.2556      2.00000
      7      -3.1508      2.00000
      8      -3.1508      2.00000
      9      -2.8181      2.00000
     10      -2.8181      2.00000
     11      -2.6165      2.00000
     12      -2.6165      2.00000
     13      -2.0522      2.00000
     14      -2.0522      2.00000
     15       1.4566      2.00000
     16       1.4566      2.00000
     17       1.4617      2.00000
     18       1.4617      2.00000
     19       6.9492      0.00000
     20       6.9492      0.00000
     21       8.5353      0.00000
     22       8.5353      0.00000
     23      12.3875      0.00000
     24      12.3875      0.00000
     25      13.1878      0.00000
     26      13.1878      0.00000
     27      16.3618      0.00000
     28      16.3618      0.00000

 k-point    19 :       0.1667    0.1667    0.5000
  band No.  band energies     occupation 
      1      -9.6998      2.00000
      2      -9.6998      2.00000
      3      -3.5858      2.00000
      4      -3.5858      2.00000
      5      -3.3692      2.00000
      6      -3.3692      2.00000
      7      -3.3126      2.00000
      8      -3.3126      2.00000
      9      -2.8682      2.00000
     10      -2.8682      2.00000
     11      -2.8263      2.00000
     12      -2.8263      2.00000
     13      -0.4982      2.00000
     14      -0.4982      2.00000
     15       1.3407      2.00000
     16       1.3407      2.00000
     17       1.5897      2.00000
     18       1.5897      2.00000
     19       8.2815      0.00000
     20       8.2815      0.00000
     21       9.5291      0.00000
     22       9.5291      0.00000
     23      10.5205      0.00000
     24      10.5205      0.00000
     25      11.9385      0.00000
     26      11.9385      0.00000
     27      14.9571      0.00000
     28      14.9571      0.00000

 k-point    20 :       0.3333    0.1667    0.5000
  band No.  band energies     occupation 
      1      -9.3484      2.00000
      2      -9.3484      2.00000
      3      -3.5370      2.00000
      4      -3.5370      2.00000
      5      -3.2835      2.00000
      6      -3.2835      2.00000
      7      -3.1885      2.00000
      8      -3.1885      2.00000
      9      -2.8654      2.00000
     10      -2.8654      2.00000
     11      -2.6525      2.00000
     12      -2.6525      2.00000
     13      -1.6728      2.00000
     14      -1.6728      2.00000
     15       0.6065      2.00000
     16       0.6065      2.00000
     17       1.6389      2.00000
     18       1.6389      2.00000
     19       7.7438      0.00000
     20       7.7438      0.00000
     21       9.3919      0.00000
     22       9.3919      0.00000
     23      11.0185      0.00000
     24      11.0185      0.00000
     25      12.8555      0.00000
     26      12.8555      0.00000
     27      15.6230      0.00000
     28      15.6230      0.00000

 k-point    21 :       0.3333    0.3333    0.5000
  band No.  band energies     occupation 
      1      -9.2271      2.00000
      2      -9.2271      2.00000
      3      -3.4175      2.00000
      4      -3.4175      2.00000
      5      -3.3346      2.00000
      6      -3.3346      2.00000
      7      -3.0594      2.00000
      8      -3.0594      2.00000
      9      -2.9336      2.00000
     10      -2.9336      2.00000
     11      -2.4363      2.00000
     12      -2.4363      2.00000
     13      -1.9325      2.00000
     14      -1.9325      2.00000
     15      -0.2443      2.00000
     16      -0.2443      2.00000
     17       1.7707      2.00000
     18       1.7707      2.00000
     19       8.0386      0.00000
     20       8.0386      0.00000
     21       9.6781      0.00000
     22       9.6781      0.00000
     23      11.1971      0.00000
     24      11.1971      0.00000
     25      13.2161      0.00000
     26      13.2161      0.00000
     27      14.2724      0.00000
     28      14.2724      0.00000


--------------------------------------------------------------------------------------------------------


 soft charge-density along one line, spin component           1
         0         1         2         3         4         5         6         7         8         9
 total charge-density along one line

 pseudopotential strength for first ion, spin component:           1
 -9.040  -0.000   0.000   0.002   0.000  -9.447  -0.000   0.000
 -0.000  -9.039  -0.000  -0.000   0.002  -0.000  -9.445  -0.000
  0.000  -0.000  -9.040  -0.000   0.000   0.000  -0.000  -9.447
  0.002  -0.000  -0.000  -9.039  -0.000   0.002  -0.000  -0.000
  0.000   0.002   0.000  -0.000  -9.040   0.000   0.002   0.000
 -9.447  -0.000   0.000   0.002   0.000  -9.776  -0.000   0.000
 -0.000  -9.445  -0.000  -0.000   0.002  -0.000  -9.774  -0.000
  0.000  -0.000  -9.447  -0.000   0.000   0.000  -0.000  -9.776
  0.002  -0.000  -0.000  -9.445  -0.000   0.002  -0.000  -0.000
  0.000   0.002   0.000  -0.000  -9.447   0.000   0.002   0.000
 -0.000   0.000  -0.000  -0.000  -0.000  -0.000   0.000  -0.000
 -0.000   0.000  -0.000  -0.000  -0.000  -0.000   0.000  -0.000
 -0.000   0.002  -0.000  -0.000  -0.003  -0.000   0.002  -0.000
 -0.000   0.000  -0.004  -0.000   0.000  -0.000   0.000  -0.003
 -0.003  -0.000   0.000   0.002  -0.000  -0.002  -0.000   0.000
 -0.000   0.003  -0.000  -0.000  -0.004  -0.000   0.002  -0.000
 -0.000   0.000  -0.004  -0.000   0.000  -0.000   0.000  -0.003
 -0.004  -0.000   0.000   0.003  -0.000  -0.003  -0.000   0.000
 total augmentation occupancy for first ion, spin component:           1
  4.048   0.000   0.000  -0.905   0.000  -2.087  -0.000  -0.000   0.910  -0.000   0.000  -0.000   0.000  -0.000  -0.719  -0.000
  0.000   3.424   0.000  -0.000  -0.905  -0.000  -1.461  -0.000   0.000   0.910   0.000  -0.000   0.514  -0.000  -0.000  -0.079
  0.000   0.000   4.690  -0.000  -0.000  -0.000  -0.000  -2.731   0.000   0.000  -0.010   0.004   0.000  -0.885  -0.000  -0.000
 -0.905  -0.000  -0.000   3.424  -0.000   0.910   0.000   0.000  -1.461   0.000   0.000   0.000  -0.000   0.000   0.514   0.000
  0.000  -0.905  -0.000  -0.000   4.048  -0.000   0.910   0.000   0.000  -2.087   0.000  -0.000  -0.719   0.000  -0.000   0.111
 -2.087  -0.000  -0.000   0.910  -0.000   2.117   0.000   0.000  -0.915   0.000  -0.000   0.000  -0.000   0.000   0.703   0.000
 -0.000  -1.461  -0.000   0.000   0.910   0.000   1.490   0.000  -0.000  -0.915  -0.000   0.000  -0.503   0.000   0.000   0.088
 -0.000  -0.000  -2.731   0.000   0.000   0.000   0.000   2.763  -0.000  -0.000   0.010  -0.004  -0.000   0.866   0.000   0.000
  0.910   0.000   0.000  -1.461   0.000  -0.915  -0.000  -0.000   1.490  -0.000   0.000   0.000   0.000   0.000  -0.503  -0.000
 -0.000   0.910   0.000   0.000  -2.087   0.000  -0.915  -0.000  -0.000   2.117  -0.000  -0.000   0.703  -0.000   0.000  -0.123
  0.000   0.000  -0.010   0.000   0.000  -0.000  -0.000   0.010   0.000   0.000   2.911  -0.738   0.000   0.001   0.000  -0.000
 -0.000  -0.000   0.004   0.000   0.000   0.000   0.000  -0.004   0.000  -0.000  -0.738   0.219   0.000   0.000  -0.000  -0.000
  0.000   0.514   0.000  -0.000  -0.719  -0.000  -0.503  -0.000   0.000   0.703   0.000   0.000   0.459  -0.000  -0.000  -0.082
 -0.000  -0.000  -0.885   0.000   0.000   0.000   0.000   0.866   0.000  -0.000   0.001   0.000  -0.000   0.463  -0.000   0.000
 -0.719  -0.000  -0.000   0.514  -0.000   0.703   0.000   0.000  -0.503   0.000   0.000  -0.000  -0.000  -0.000   0.459   0.000
 -0.000  -0.079  -0.000   0.000   0.111   0.000   0.088   0.000  -0.000  -0.123  -0.000  -0.000  -0.082   0.000   0.000   0.018
  0.000   0.000   0.136  -0.000  -0.000  -0.000  -0.000  -0.152   0.000   0.000   0.000  -0.000   0.000  -0.083   0.000   0.000
  0.111   0.000   0.000  -0.079   0.000  -0.123  -0.000  -0.000   0.088   0.000   0.000   0.000   0.000   0.000  -0.082  -0.000


------------------------ aborting loop because EDIFF is reached ----------------------------------------


    CHARGE:  cpu time      0.1798: real time      0.2131
    FORLOC:  cpu time      0.0008: real time      0.0008
    FORNL :  cpu time      0.0632: real time      0.0623
    STRESS:  cpu time      0.4706: real time      0.4405
    FORCOR:  cpu time      0.0860: real time      0.0901
    FORHAR:  cpu time      0.0226: real time      0.0233
    MIXING:  cpu time      0.0056: real time      0.0054
    OFIELD:  cpu time      0.0000: real time      0.0000

  FORCE on cell =-STRESS in cart. coord.  units (eV):
  Direction    XX          YY          ZZ          XY          YZ          ZX
  --------------------------------------------------------------------------------------
  Alpha Z   162.93832   162.93832   162.93832
  Ewald    -882.99159  -882.99159  -847.36154    -0.00000     0.00000     0.00000
  Hartree   428.24030   428.24030   451.38714     0.00000    -0.00000    -0.00000
  E(xc)    -188.10537  -188.10536  -188.05322     0.00000     0.00000    -0.00000
  Local      46.26944    46.26983   -11.95468    -0.00000    -0.00000    -0.00000
  n-local    81.30211    86.02638    83.64169     2.67992     0.17725    -0.59980
  augment    47.66378    47.66350    47.69913     0.00000     0.00000    -0.00000
  Kinetic   305.44957   311.93003   308.36313     5.25761     0.40165    -0.79102
  Fock        0.00000     0.00000     0.00000     0.00000     0.00000     0.00000
  -------------------------------------------------------------------------------------
  Total       6.36898     6.36898     6.65996    -0.00000    -0.00000     0.00000
  in kB     147.03426   147.03426   153.75177    -0.00000    -0.00000     0.00000
  external pressure =      149.27 kB  Pullay stress =        0.00 kB


 VOLUME and BASIS-vectors are now :
 -----------------------------------------------------------------------------
  energy-cutoff  :      520.00
  volume of cell :       69.40
      direct lattice vectors                 reciprocal lattice vectors
     1.828106213 -3.166372842  0.000000000     0.273507084 -0.157909389  0.000000000
     1.828106213  3.166372842  0.000000000     0.273507084  0.157909389 -0.000000000
     0.000000000  0.000000000  5.994717791    -0.000000000  0.000000000  0.166813524

  length of vectors
     3.656212425  3.656212425  5.994717791     0.315818778  0.315818778  0.166813524


 FORCES acting on ions
    electron-ion (+dipol)            ewald-force                    non-local-force                 convergence-correction
 -----------------------------------------------------------------------------------------------
   -.237E-06 -.882E-06 -.387E+01   0.936E-14 0.560E-11 0.384E+01   -.107E-19 -.366E-18 0.334E-01   0.270E-13 0.126E-09 0.578E-05
   -.237E-06 0.882E-06 -.387E+01   -.226E-13 -.560E-11 0.384E+01   0.243E-17 0.652E-17 0.334E-01   0.421E-13 -.126E-09 0.578E-05
   0.137E-07 -.518E-06 0.383E+01   0.170E-13 0.520E-11 -.384E+01   -.301E-16 -.535E-17 0.696E-02   0.942E-14 -.245E-10 0.538E-05
   0.137E-07 0.518E-06 0.383E+01   -.153E-13 -.520E-11 -.384E+01   0.150E-16 0.100E-16 0.696E-02   -.856E-14 0.245E-10 0.538E-05
 -----------------------------------------------------------------------------------------------
   -.447E-06 -.356E-11 -.827E-01   -.115E-13 0.396E-14 0.000E+00   -.127E-16 0.108E-16 0.807E-01   0.699E-13 0.126E-13 0.223E-04


 POSITION                                       TOTAL-FORCE (eV/Angst)
 -----------------------------------------------------------------------------------
      1.82811      1.05546      0.00364         0.000000      0.000000      0.000010
      1.82811     -1.05546      3.00100        -0.000000     -0.000000      0.000010
      1.82811      1.05546      2.24438         0.000000     -0.000000     -0.000010
      1.82811     -1.05546      5.24173        -0.000000     -0.000000     -0.000010
 -----------------------------------------------------------------------------------
    total drift:                               -0.000000     -0.000000     -0.002019


--------------------------------------------------------------------------------------------------------



  FREE ENERGIE OF THE ION-ELECTRON SYSTEM (eV)
  ---------------------------------------------------
  free  energy   TOTEN  =       -13.21826802 eV

  energy  without entropy=      -13.21826802  energy(sigma->0) =      -13.21826802

 d Force = 0.2326426E-05[ 0.100E-07, 0.464E-05]  d Energy = 0.2371426E-05-0.450E-07
 d Force = 0.3909562E-02[ 0.388E-02, 0.394E-02]  d Ewald  = 0.3909572E-02-0.108E-07


--------------------------------------------------------------------------------------------------------


    POTLOK:  cpu time      0.1059: real time      0.1061


--------------------------------------------------------------------------------------------------------


 Quasi-Newton relaxation of ions (Broydens 2nd method)
  g(Force)  = 0.190E-10   g(Stress)= 0.000E+00

 retain information from N=  1 steps
 eigenvalues of (default step * inverse Hessian matrix)
  average eigenvalue of G=   1.1402
 eigenvalue spectrum of G is  1.1402


--------------------------------------------------------------------------------------------------------


  
 reached required accuracy - stopping structural energy minimisation
 writing wavefunctions
     LOOP+:  cpu time     49.3756: real time     52.8200
    4ORBIT:  cpu time      0.0000: real time      0.0000

 total amount of memory used by VASP MPI-rank0    46553. kBytes
=======================================================================

   base      :      30000. kBytes
   nonl-proj :      11551. kBytes
   fftplans  :        894. kBytes
   grid      :       2739. kBytes
   one-center:         62. kBytes
   wavefun   :       1307. kBytes

  
  
 General timing and accounting informations for this job:
 ========================================================
  
                  Total CPU time used (sec):      272.388
                            User time (sec):      173.035
                          System time (sec):       99.353
                         Elapsed time (sec):      295.295
  
                   Maximum memory used (kb):    73007104.
                   Average memory used (kb):          N/A
  
                          Minor page faults:        10838
                          Major page faults:          242
                 Voluntary context switches:           52
