nqpoint: 255    
npath: 5      
segment_nqpoint:
- 51
- 51
- 51
- 51
- 51
labels:
- [ '$Gamma$', 'A' ]
- [ 'A', 'H' ]
- [ 'H', 'K' ]
- [ 'K', 'L' ]
- [ 'L', 'M' ]
reciprocal_lattice:
- [   0.27350708,  -0.15790939,   0.00000000 ] # a*
- [   0.27350708,   0.15790939,   0.00000000 ] # b*
- [   0.00000000,   0.00000000,   0.16681352 ] # c*
natom: 4      
lattice:
- [     1.828106212527642,    -3.166372841730184,     0.000000000000000 ] # a
- [     1.828106212527642,     3.166372841730184,     0.000000000000000 ] # b
- [     0.000000000000000,     0.000000000000000,     5.994717791182844 ] # c
points:
- symbol: Zn # 1
  coordinates: [  0.333333333333336,  0.666666666666664,  0.000607866263464 ]
  mass: 65.380000
- symbol: Zn # 2
  coordinates: [  0.666666666666664,  0.333333333333336,  0.500607866263464 ]
  mass: 65.380000
- symbol: S # 3
  coordinates: [  0.333333333333336,  0.666666666666664,  0.374392133736536 ]
  mass: 32.065000
- symbol: S # 4
  coordinates: [  0.666666666666664,  0.333333333333336,  0.874392133736536 ]
  mass: 32.065000

phonon:
- q-position: [    0.0000000,    0.0000000,    0.0000000 ]
  distance:    0.0000000
  band:
  - # 1
    frequency:   -0.0000002424
  - # 2
    frequency:    0.0000002739
  - # 3
    frequency:    0.0000002941
  - # 4
    frequency:    1.5165883416
  - # 5
    frequency:    1.5165883416
  - # 6
    frequency:    6.4556972436
  - # 7
    frequency:   10.1926253447
  - # 8
    frequency:   10.1926253447
  - # 9
    frequency:   10.2034637928
  - # 10
    frequency:   10.5406134282
  - # 11
    frequency:   10.5406134282
  - # 12
    frequency:   11.9916802658

- q-position: [    0.0000000,    0.0000000,    0.0100000 ]
  distance:    0.0016681
  band:
  - # 1
    frequency:    0.0379979662
  - # 2
    frequency:    0.0379979662
  - # 3
    frequency:    0.1187600507
  - # 4
    frequency:    1.5166772454
  - # 5
    frequency:    1.5166772454
  - # 6
    frequency:    6.4549577589
  - # 7
    frequency:   10.1926856170
  - # 8
    frequency:   10.1926856170
  - # 9
    frequency:   10.2046168849
  - # 10
    frequency:   10.5405046952
  - # 11
    frequency:   10.5405046952
  - # 12
    frequency:   11.9919735694

- q-position: [    0.0000000,    0.0000000,    0.0200000 ]
  distance:    0.0033363
  band:
  - # 1
    frequency:    0.0759690736
  - # 2
    frequency:    0.0759690736
  - # 3
    frequency:    0.2374521064
  - # 4
    frequency:    1.5169430743
  - # 5
    frequency:    1.5169430743
  - # 6
    frequency:    6.4527405924
  - # 7
    frequency:   10.1928664554
  - # 8
    frequency:   10.1928664554
  - # 9
    frequency:   10.2080725963
  - # 10
    frequency:   10.5401786611
  - # 11
    frequency:   10.5401786611
  - # 12
    frequency:   11.9928504071

- q-position: [    0.0000000,    0.0000000,    0.0300000 ]
  distance:    0.0050044
  band:
  - # 1
    frequency:    0.1138864956
  - # 2
    frequency:    0.1138864956
  - # 3
    frequency:    0.3560083343
  - # 4
    frequency:    1.5173831852
  - # 5
    frequency:    1.5173831852
  - # 6
    frequency:    6.4490495859
  - # 7
    frequency:   10.1931679240
  - # 8
    frequency:   10.1931679240
  - # 9
    frequency:   10.2138202511
  - # 10
    frequency:   10.5396358202
  - # 11
    frequency:   10.5396358202
  - # 12
    frequency:   11.9943015864

- q-position: [    0.0000000,    0.0000000,    0.0400000 ]
  distance:    0.0066725
  band:
  - # 1
    frequency:    0.1517234697
  - # 2
    frequency:    0.1517234697
  - # 3
    frequency:    0.4743612255
  - # 4
    frequency:    1.5179931899
  - # 5
    frequency:    1.5179931899
  - # 6
    frequency:    6.4438910748
  - # 7
    frequency:   10.1935901288
  - # 8
    frequency:   10.1935901288
  - # 9
    frequency:   10.2218421176
  - # 10
    frequency:   10.5388769952
  - # 11
    frequency:   10.5388769952
  - # 12
    frequency:   11.9963118731

- q-position: [    0.0000000,    0.0000000,    0.0500000 ]
  distance:    0.0083407
  band:
  - # 1
    frequency:    0.1894533301
  - # 2
    frequency:    0.1894533301
  - # 3
    frequency:    0.5924437540
  - # 4
    frequency:    1.5187669785
  - # 5
    frequency:    1.5187669785
  - # 6
    frequency:    6.4372737883
  - # 7
    frequency:   10.1941332153
  - # 8
    frequency:   10.1941332153
  - # 9
    frequency:   10.2321134998
  - # 10
    frequency:   10.5379033357
  - # 11
    frequency:   10.5379033357
  - # 12
    frequency:   11.9988601202

- q-position: [    0.0000000,    0.0000000,    0.0600000 ]
  distance:    0.0100088
  band:
  - # 1
    frequency:    0.2270495396
  - # 2
    frequency:    0.2270495396
  - # 3
    frequency:    0.7101895340
  - # 4
    frequency:    1.5196967535
  - # 5
    frequency:    1.5196967535
  - # 6
    frequency:    6.4292087122
  - # 7
    frequency:   10.1947973666
  - # 8
    frequency:   10.1947973666
  - # 9
    frequency:   10.2446028640
  - # 10
    frequency:   10.5367163165
  - # 11
    frequency:   10.5367163165
  - # 12
    frequency:   12.0019194449

- q-position: [    0.0000000,    0.0000000,    0.0700000 ]
  distance:    0.0116769
  band:
  - # 1
    frequency:    0.2644857218
  - # 2
    frequency:    0.2644857218
  - # 3
    frequency:    0.8275329732
  - # 4
    frequency:    1.5207730724
  - # 5
    frequency:    1.5207730724
  - # 6
    frequency:    6.4197089187
  - # 7
    frequency:   10.1955827999
  - # 8
    frequency:   10.1955827999
  - # 9
    frequency:   10.2592720001
  - # 10
    frequency:   10.5353177342
  - # 11
    frequency:   10.5353177342
  - # 12
    frequency:   12.0054574512

- q-position: [    0.0000000,    0.0000000,    0.0800000 ]
  distance:    0.0133451
  band:
  - # 1
    frequency:    0.3017356929
  - # 2
    frequency:    0.3017356929
  - # 3
    frequency:    0.9444094212
  - # 4
    frequency:    1.5219848983
  - # 5
    frequency:    1.5219848983
  - # 6
    frequency:    6.4087893651
  - # 7
    frequency:   10.1964897628
  - # 8
    frequency:   10.1964897628
  - # 9
    frequency:   10.2760762147
  - # 10
    frequency:   10.5337097042
  - # 11
    frequency:   10.5337097042
  - # 12
    frequency:   12.0094364937

- q-position: [    0.0000000,    0.0000000,    0.0900000 ]
  distance:    0.0150132
  band:
  - # 1
    frequency:    0.3387734942
  - # 2
    frequency:    0.3387734942
  - # 3
    frequency:    1.0607553138
  - # 4
    frequency:    1.5233196589
  - # 5
    frequency:    1.5233196589
  - # 6
    frequency:    6.3964666680
  - # 7
    frequency:   10.1975185288
  - # 8
    frequency:   10.1975185288
  - # 9
    frequency:   10.2949645555
  - # 10
    frequency:   10.5318946569
  - # 11
    frequency:   10.5318946569
  - # 12
    frequency:   12.0138139788

- q-position: [    0.0000000,    0.0000000,    0.1000000 ]
  distance:    0.0166814
  band:
  - # 1
    frequency:    0.3755734237
  - # 2
    frequency:    0.3755734237
  - # 3
    frequency:    1.1765083111
  - # 4
    frequency:    1.5247633123
  - # 5
    frequency:    1.5247633123
  - # 6
    frequency:    6.3827588544
  - # 7
    frequency:   10.1986693919
  - # 8
    frequency:   10.1986693919
  - # 9
    frequency:   10.3158800639
  - # 10
    frequency:   10.5298753329
  - # 11
    frequency:   10.5298753329
  - # 12
    frequency:   12.0185426993

- q-position: [    0.0000000,    0.0000000,    0.1100000 ]
  distance:    0.0183495
  band:
  - # 1
    frequency:    0.4121100685
  - # 2
    frequency:    0.4121100685
  - # 3
    frequency:    1.2916074285
  - # 4
    frequency:    1.5263004194
  - # 5
    frequency:    1.5263004194
  - # 6
    frequency:    6.3676850986
  - # 7
    frequency:   10.1999426613
  - # 8
    frequency:   10.1999426613
  - # 9
    frequency:   10.3387600541
  - # 10
    frequency:   10.5276547779
  - # 11
    frequency:   10.5276547779
  - # 12
    frequency:   12.0235711956

- q-position: [    0.0000000,    0.0000000,    0.1200000 ]
  distance:    0.0200176
  band:
  - # 1
    frequency:    0.4483583360
  - # 2
    frequency:    0.4483583360
  - # 3
    frequency:    1.4059931619
  - # 4
    frequency:    1.5279142221
  - # 5
    frequency:    1.5279142221
  - # 6
    frequency:    6.3512654455
  - # 7
    frequency:   10.2013386546
  - # 8
    frequency:   10.2013386546
  - # 9
    frequency:   10.3635364161
  - # 10
    frequency:   10.5252363371
  - # 11
    frequency:   10.5252363371
  - # 12
    frequency:   12.0288441404

- q-position: [    0.0000000,    0.0000000,    0.1300000 ]
  distance:    0.0216858
  band:
  - # 1
    frequency:    0.4842934864
  - # 2
    frequency:    0.4842934864
  - # 3
    frequency:    1.5196076046
  - # 4
    frequency:    1.5295867260
  - # 5
    frequency:    1.5295867260
  - # 6
    frequency:    6.3335205301
  - # 7
    frequency:   10.2028576912
  - # 8
    frequency:   10.2028576912
  - # 9
    frequency:   10.3901359394
  - # 10
    frequency:   10.5226236488
  - # 11
    frequency:   10.5226236488
  - # 12
    frequency:   12.0343027401

- q-position: [    0.0000000,    0.0000000,    0.1400000 ]
  distance:    0.0233539
  band:
  - # 1
    frequency:    0.5198911638
  - # 2
    frequency:    0.5198911638
  - # 3
    frequency:    1.5312987879
  - # 4
    frequency:    1.5312987879
  - # 5
    frequency:    1.6323945569
  - # 6
    frequency:    6.3144712935
  - # 7
    frequency:   10.2045000846
  - # 8
    frequency:   10.2045000846
  - # 9
    frequency:   10.4184806564
  - # 10
    frequency:   10.5198206370
  - # 11
    frequency:   10.5198206370
  - # 12
    frequency:   12.0398851496

- q-position: [    0.0000000,    0.0000000,    0.1500000 ]
  distance:    0.0250220
  band:
  - # 1
    frequency:    0.5551274282
  - # 2
    frequency:    0.5551274282
  - # 3
    frequency:    1.5330302060
  - # 4
    frequency:    1.5330302060
  - # 5
    frequency:    1.7442996271
  - # 6
    frequency:    6.2941387034
  - # 7
    frequency:   10.2062661347
  - # 8
    frequency:   10.2062661347
  - # 9
    frequency:   10.4484881998
  - # 10
    frequency:   10.5168315047
  - # 11
    frequency:   10.5168315047
  - # 12
    frequency:   12.0455268938

- q-position: [    0.0000000,    0.0000000,    0.1600000 ]
  distance:    0.0266902
  band:
  - # 1
    frequency:    0.5899787864
  - # 2
    frequency:    0.5899787864
  - # 3
    frequency:    1.5347598126
  - # 4
    frequency:    1.5347598126
  - # 5
    frequency:    1.8552703248
  - # 6
    frequency:    6.2725434821
  - # 7
    frequency:   10.2081561191
  - # 8
    frequency:   10.2081561191
  - # 9
    frequency:   10.4800721743
  - # 10
    frequency:   10.5136607250
  - # 11
    frequency:   10.5136607250
  - # 12
    frequency:   12.0511612929

- q-position: [    0.0000000,    0.0000000,    0.1700000 ]
  distance:    0.0283583
  band:
  - # 1
    frequency:    0.6244222236
  - # 2
    frequency:    0.6244222236
  - # 3
    frequency:    1.5364655696
  - # 4
    frequency:    1.5364655696
  - # 5
    frequency:    1.9652561451
  - # 6
    frequency:    6.2497058453
  - # 7
    frequency:   10.2101702843
  - # 8
    frequency:   10.2101702843
  - # 9
    frequency:   10.5103130330
  - # 10
    frequency:   10.5103130330
  - # 11
    frequency:   10.5131425382
  - # 12
    frequency:   12.0567198866

- q-position: [    0.0000000,    0.0000000,    0.1800000 ]
  distance:    0.0300264
  band:
  - # 1
    frequency:    0.6584352341
  - # 2
    frequency:    0.6584352341
  - # 3
    frequency:    1.5381246635
  - # 4
    frequency:    1.5381246635
  - # 5
    frequency:    2.0742086445
  - # 6
    frequency:    6.2256452560
  - # 7
    frequency:   10.2123088368
  - # 8
    frequency:   10.2123088368
  - # 9
    frequency:   10.5067934158
  - # 10
    frequency:   10.5067934158
  - # 11
    frequency:   10.5476059919
  - # 12
    frequency:   12.0621328535

- q-position: [    0.0000000,    0.0000000,    0.1900000 ]
  distance:    0.0316946
  band:
  - # 1
    frequency:    0.6919958521
  - # 2
    frequency:    0.6919958521
  - # 3
    frequency:    1.5397136020
  - # 4
    frequency:    1.5397136020
  - # 5
    frequency:    2.1820815087
  - # 6
    frequency:    6.2003801967
  - # 7
    frequency:   10.2145719332
  - # 8
    frequency:   10.2145719332
  - # 9
    frequency:   10.5031071035
  - # 10
    frequency:   10.5031071035
  - # 11
    frequency:   10.5833663721
  - # 12
    frequency:   12.0673294232

- q-position: [    0.0000000,    0.0000000,    0.2000000 ]
  distance:    0.0333627
  band:
  - # 1
    frequency:    0.7250826824
  - # 2
    frequency:    0.7250826824
  - # 3
    frequency:    1.5412083100
  - # 4
    frequency:    1.5412083100
  - # 5
    frequency:    2.2888306108
  - # 6
    frequency:    6.1739279609
  - # 7
    frequency:   10.2169596703
  - # 8
    frequency:   10.2169596703
  - # 9
    frequency:   10.4992595581
  - # 10
    frequency:   10.4992595581
  - # 11
    frequency:   10.6203250477
  - # 12
    frequency:   12.0722382772

- q-position: [    0.0000000,    0.0000000,    0.2100000 ]
  distance:    0.0350308
  band:
  - # 1
    frequency:    0.7576749298
  - # 2
    frequency:    0.7576749298
  - # 3
    frequency:    1.5425842243
  - # 4
    frequency:    1.5425842243
  - # 5
    frequency:    2.3944140628
  - # 6
    frequency:    6.1463044665
  - # 7
    frequency:   10.2194720754
  - # 8
    frequency:   10.2194720754
  - # 9
    frequency:   10.4952564629
  - # 10
    frequency:   10.4952564629
  - # 11
    frequency:   10.6583813156
  - # 12
    frequency:   12.0767879374

- q-position: [    0.0000000,    0.0000000,    0.2200000 ]
  distance:    0.0366990
  band:
  - # 1
    frequency:    0.7897524298
  - # 2
    frequency:    0.7897524298
  - # 3
    frequency:    1.5438163880
  - # 4
    frequency:    1.5438163880
  - # 5
    frequency:    2.4987922570
  - # 6
    frequency:    6.1175240935
  - # 7
    frequency:   10.2221090955
  - # 8
    frequency:   10.2221090955
  - # 9
    frequency:   10.4911037111
  - # 10
    frequency:   10.4911037111
  - # 11
    frequency:   10.6974327951
  - # 12
    frequency:   12.0809071400

- q-position: [    0.0000000,    0.0000000,    0.2300000 ]
  distance:    0.0383671
  band:
  - # 1
    frequency:    0.8212956771
  - # 2
    frequency:    0.8212956771
  - # 3
    frequency:    1.5448795424
  - # 4
    frequency:    1.5448795424
  - # 5
    frequency:    2.6019279011
  - # 6
    frequency:    6.0875995444
  - # 7
    frequency:   10.2248705875
  - # 8
    frequency:   10.2248705875
  - # 9
    frequency:   10.4868073936
  - # 10
    frequency:   10.4868073936
  - # 11
    frequency:   10.7373758168
  - # 12
    frequency:   12.0845251926

- q-position: [    0.0000000,    0.0000000,    0.2400000 ]
  distance:    0.0400352
  band:
  - # 1
    frequency:    0.8522858549
  - # 2
    frequency:    0.8522858549
  - # 3
    frequency:    1.5457482165
  - # 4
    frequency:    1.5457482165
  - # 5
    frequency:    2.7037860445
  - # 6
    frequency:    6.0565417302
  - # 7
    frequency:   10.2277563072
  - # 8
    frequency:   10.2277563072
  - # 9
    frequency:   10.4823737867
  - # 10
    frequency:   10.4823737867
  - # 11
    frequency:   10.7781058064
  - # 12
    frequency:   12.0875723153

- q-position: [    0.0000000,    0.0000000,    0.2500000 ]
  distance:    0.0417034
  band:
  - # 1
    frequency:    0.8827048632
  - # 2
    frequency:    0.8827048632
  - # 3
    frequency:    1.5463968148
  - # 4
    frequency:    1.5463968148
  - # 5
    frequency:    2.8043340980
  - # 6
    frequency:    6.0243596807
  - # 7
    frequency:   10.2307658992
  - # 8
    frequency:   10.2307658992
  - # 9
    frequency:   10.4778093391
  - # 10
    frequency:   10.4778093391
  - # 11
    frequency:   10.8195176594
  - # 12
    frequency:   12.0899799635

- q-position: [    0.0000000,    0.0000000,    0.2600000 ]
  distance:    0.0433715
  band:
  - # 1
    frequency:    0.9125353464
  - # 2
    frequency:    0.9125353464
  - # 3
    frequency:    1.5467997021
  - # 4
    frequency:    1.5467997021
  - # 5
    frequency:    2.9035418452
  - # 6
    frequency:    5.9910604788
  - # 7
    frequency:   10.2338988860
  - # 8
    frequency:   10.2338988860
  - # 9
    frequency:   10.4731206587
  - # 10
    frequency:   10.4731206587
  - # 11
    frequency:   10.8615061076
  - # 12
    frequency:   12.0916811320

- q-position: [    0.0000000,    0.0000000,    0.2700000 ]
  distance:    0.0450397
  band:
  - # 1
    frequency:    0.9417607206
  - # 2
    frequency:    0.9417607206
  - # 3
    frequency:    1.5469312847
  - # 4
    frequency:    1.5469312847
  - # 5
    frequency:    3.0013814481
  - # 6
    frequency:    5.9566492191
  - # 7
    frequency:   10.2371546582
  - # 8
    frequency:   10.2371546582
  - # 9
    frequency:   10.4683144988
  - # 10
    frequency:   10.4683144988
  - # 11
    frequency:   10.9039660740
  - # 12
    frequency:   12.0926106425

- q-position: [    0.0000000,    0.0000000,    0.2800000 ]
  distance:    0.0467078
  band:
  - # 1
    frequency:    0.9703652000
  - # 2
    frequency:    0.9703652000
  - # 3
    frequency:    1.5467660894
  - # 4
    frequency:    1.5467660894
  - # 5
    frequency:    3.0978274457
  - # 6
    frequency:    5.9211289882
  - # 7
    frequency:   10.2405324642
  - # 8
    frequency:   10.2405324642
  - # 9
    frequency:   10.4633977437
  - # 10
    frequency:   10.4633977437
  - # 11
    frequency:   10.9467930161
  - # 12
    frequency:   12.0927054113

- q-position: [    0.0000000,    0.0000000,    0.2900000 ]
  distance:    0.0483759
  band:
  - # 1
    frequency:    0.9983338229
  - # 2
    frequency:    0.9983338229
  - # 3
    frequency:    1.5462788383
  - # 4
    frequency:    1.5462788383
  - # 5
    frequency:    3.1928567460
  - # 6
    frequency:    5.8845008674
  - # 7
    frequency:   10.2440313998
  - # 8
    frequency:   10.2440313998
  - # 9
    frequency:   10.4583773948
  - # 10
    frequency:   10.4583773948
  - # 11
    frequency:   10.9898832562
  - # 12
    frequency:   12.0919047007

- q-position: [    0.0000000,    0.0000000,    0.3000000 ]
  distance:    0.0500441
  band:
  - # 1
    frequency:    1.0256524762
  - # 2
    frequency:    1.0256524762
  - # 3
    frequency:    1.5454445212
  - # 4
    frequency:    1.5454445212
  - # 5
    frequency:    3.2864486122
  - # 6
    frequency:    5.8467639557
  - # 7
    frequency:   10.2476503991
  - # 8
    frequency:   10.2476503991
  - # 9
    frequency:   10.4532605550
  - # 10
    frequency:   10.4532605550
  - # 11
    frequency:   11.0331342980
  - # 12
    frequency:   12.0901503525

- q-position: [    0.0000000,    0.0000000,    0.3100000 ]
  distance:    0.0517122
  band:
  - # 1
    frequency:    1.0523079196
  - # 2
    frequency:    1.0523079196
  - # 3
    frequency:    1.5442384638
  - # 4
    frequency:    1.5442384638
  - # 5
    frequency:    3.3785846435
  - # 6
    frequency:    5.8079154110
  - # 7
    frequency:   10.2513882253
  - # 8
    frequency:   10.2513882253
  - # 9
    frequency:   10.4480544147
  - # 10
    frequency:   10.4480544147
  - # 11
    frequency:   11.0764451297
  - # 12
    frequency:   12.0873870044

- q-position: [    0.0000000,    0.0000000,    0.3200000 ]
  distance:    0.0533803
  band:
  - # 1
    frequency:    1.0782878090
  - # 2
    frequency:    1.0782878090
  - # 3
    frequency:    1.5426363927
  - # 4
    frequency:    1.5426363927
  - # 5
    frequency:    3.4692487494
  - # 6
    frequency:    5.7679505096
  - # 7
    frequency:   10.2552434610
  - # 8
    frequency:   10.2552434610
  - # 9
    frequency:   10.4427662353
  - # 10
    frequency:   10.4427662353
  - # 11
    frequency:   11.1197165106
  - # 12
    frequency:   12.0835622916

- q-position: [    0.0000000,    0.0000000,    0.3300000 ]
  distance:    0.0550485
  band:
  - # 1
    frequency:    1.1035807183
  - # 2
    frequency:    1.1035807183
  - # 3
    frequency:    1.5406144971
  - # 4
    frequency:    1.5406144971
  - # 5
    frequency:    3.5584271192
  - # 6
    frequency:    5.7268627209
  - # 7
    frequency:   10.2592145010
  - # 8
    frequency:   10.2592145010
  - # 9
    frequency:   10.4374033348
  - # 10
    frequency:   10.4374033348
  - # 11
    frequency:   11.1628512445
  - # 12
    frequency:   12.0786270319

- q-position: [    0.0000000,    0.0000000,    0.3400000 ]
  distance:    0.0567166
  band:
  - # 1
    frequency:    1.1281761609
  - # 2
    frequency:    1.1281761609
  - # 3
    frequency:    1.5381494874
  - # 4
    frequency:    1.5381494874
  - # 5
    frequency:    3.6461081864
  - # 6
    frequency:    5.6846437964
  - # 7
    frequency:   10.2632995435
  - # 8
    frequency:   10.2632995435
  - # 9
    frequency:   10.4319730718
  - # 10
    frequency:   10.4319730718
  - # 11
    frequency:   11.2057544366
  - # 12
    frequency:   12.0725353964

- q-position: [    0.0000000,    0.0000000,    0.3500000 ]
  distance:    0.0583847
  band:
  - # 1
    frequency:    1.1520646093
  - # 2
    frequency:    1.1520646093
  - # 3
    frequency:    1.5352186496
  - # 4
    frequency:    1.5352186496
  - # 5
    frequency:    3.7322825879
  - # 6
    frequency:    5.6412838711
  - # 7
    frequency:   10.2674965831
  - # 8
    frequency:   10.2674965831
  - # 9
    frequency:   10.4264828295
  - # 10
    frequency:   10.4264828295
  - # 11
    frequency:   11.2483337351
  - # 12
    frequency:   12.0652450669

- q-position: [    0.0000000,    0.0000000,    0.3600000 ]
  distance:    0.0600529
  band:
  - # 1
    frequency:    1.1752375139
  - # 2
    frequency:    1.1752375139
  - # 3
    frequency:    1.5317998971
  - # 4
    frequency:    1.5317998971
  - # 5
    frequency:    3.8169431175
  - # 6
    frequency:    5.5967715770
  - # 7
    frequency:   10.2718034046
  - # 8
    frequency:   10.2718034046
  - # 9
    frequency:   10.4209400005
  - # 10
    frequency:   10.4209400005
  - # 11
    frequency:   11.2904995579
  - # 12
    frequency:   12.0567173793

- q-position: [    0.0000000,    0.0000000,    0.3700000 ]
  distance:    0.0617210
  band:
  - # 1
    frequency:    1.1976873209
  - # 2
    frequency:    1.1976873209
  - # 3
    frequency:    1.5278718193
  - # 4
    frequency:    1.5278718193
  - # 5
    frequency:    3.9000846759
  - # 6
    frequency:    5.5510941642
  - # 7
    frequency:   10.2762175764
  - # 8
    frequency:   10.2762175764
  - # 9
    frequency:   10.4153519711
  - # 10
    frequency:   10.4153519711
  - # 11
    frequency:   11.3321653036
  - # 12
    frequency:   12.0469174548

- q-position: [    0.0000000,    0.0000000,    0.3800000 ]
  distance:    0.0633891
  band:
  - # 1
    frequency:    1.2194074883
  - # 2
    frequency:    1.2194074883
  - # 3
    frequency:    1.5234137266
  - # 4
    frequency:    1.5234137266
  - # 5
    frequency:    3.9817042143
  - # 6
    frequency:    5.5042376317
  - # 7
    frequency:   10.2807364459
  - # 8
    frequency:   10.2807364459
  - # 9
    frequency:   10.4097261053
  - # 10
    frequency:   10.4097261053
  - # 11
    frequency:   11.3732475475
  - # 12
    frequency:   12.0358143191

- q-position: [    0.0000000,    0.0000000,    0.3900000 ]
  distance:    0.0650573
  band:
  - # 1
    frequency:    1.2403925008
  - # 2
    frequency:    1.2403925008
  - # 3
    frequency:    1.5184056929
  - # 4
    frequency:    1.5184056929
  - # 5
    frequency:    4.0618006746
  - # 6
    frequency:    5.4561868634
  - # 7
    frequency:   10.2853571349
  - # 8
    frequency:   10.2853571349
  - # 9
    frequency:   10.4040697295
  - # 10
    frequency:   10.4040697295
  - # 11
    frequency:   11.4136662228
  - # 12
    frequency:   12.0233810102

- q-position: [    0.0000000,    0.0000000,    0.4000000 ]
  distance:    0.0667254
  band:
  - # 1
    frequency:    1.2606378835
  - # 2
    frequency:    1.2606378835
  - # 3
    frequency:    1.5128285947
  - # 4
    frequency:    1.5128285947
  - # 5
    frequency:    4.1403749235
  - # 6
    frequency:    5.4069257703
  - # 7
    frequency:   10.2900765358
  - # 8
    frequency:   10.2900765358
  - # 9
    frequency:   10.3983901177
  - # 10
    frequency:   10.3983901177
  - # 11
    frequency:   11.4533447871
  - # 12
    frequency:   12.0095946757

- q-position: [    0.0000000,    0.0000000,    0.4100000 ]
  distance:    0.0683935
  band:
  - # 1
    frequency:    1.2801402135
  - # 2
    frequency:    1.2801402135
  - # 3
    frequency:    1.5066641476
  - # 4
    frequency:    1.5066641476
  - # 5
    frequency:    4.2174296828
  - # 6
    frequency:    5.3564374359
  - # 7
    frequency:   10.2948913095
  - # 8
    frequency:   10.2948913095
  - # 9
    frequency:   10.3926944756
  - # 10
    frequency:   10.3926944756
  - # 11
    frequency:   11.4922103748
  - # 12
    frequency:   11.9944366590

- q-position: [    0.0000000,    0.0000000,    0.4200000 ]
  distance:    0.0700617
  band:
  - # 1
    frequency:    1.2988971307
  - # 2
    frequency:    1.2988971307
  - # 3
    frequency:    1.4998949398
  - # 4
    frequency:    1.4998949398
  - # 5
    frequency:    4.2929694540
  - # 6
    frequency:    5.3047042641
  - # 7
    frequency:   10.2997978829
  - # 8
    frequency:   10.2997978829
  - # 9
    frequency:   10.3869899268
  - # 10
    frequency:   10.3869899268
  - # 11
    frequency:   11.5301939360
  - # 12
    frequency:   11.9778925765

- q-position: [    0.0000000,    0.0000000,    0.4300000 ]
  distance:    0.0717298
  band:
  - # 1
    frequency:    1.3169073465
  - # 2
    frequency:    1.3169073465
  - # 3
    frequency:    1.4925044629
  - # 4
    frequency:    1.4925044629
  - # 5
    frequency:    4.3670004383
  - # 6
    frequency:    5.2517081297
  - # 7
    frequency:   10.3047924487
  - # 8
    frequency:   10.3047924487
  - # 9
    frequency:   10.3812834978
  - # 10
    frequency:   10.3812834978
  - # 11
    frequency:   11.5672303615
  - # 12
    frequency:   11.9599523844

- q-position: [    0.0000000,    0.0000000,    0.4400000 ]
  distance:    0.0733980
  band:
  - # 1
    frequency:    1.3341706512
  - # 2
    frequency:    1.3341706512
  - # 3
    frequency:    1.4844771407
  - # 4
    frequency:    1.4844771407
  - # 5
    frequency:    4.4395304518
  - # 6
    frequency:    5.1974305280
  - # 7
    frequency:   10.3098709649
  - # 8
    frequency:   10.3098709649
  - # 9
    frequency:   10.3755821047
  - # 10
    frequency:   10.3755821047
  - # 11
    frequency:   11.6032585950
  - # 12
    frequency:   11.9406104365

- q-position: [    0.0000000,    0.0000000,    0.4500000 ]
  distance:    0.0750661
  band:
  - # 1
    frequency:    1.3506879192
  - # 2
    frequency:    1.3506879192
  - # 3
    frequency:    1.4757983540
  - # 4
    frequency:    1.4757983540
  - # 5
    frequency:    4.5105688354
  - # 6
    frequency:    5.1418527256
  - # 7
    frequency:   10.3150291561
  - # 8
    frequency:   10.3150291561
  - # 9
    frequency:   10.3698925393
  - # 10
    frequency:   10.3698925393
  - # 11
    frequency:   11.6382217334
  - # 12
    frequency:   11.9198655328

- q-position: [    0.0000000,    0.0000000,    0.4600000 ]
  distance:    0.0767342
  band:
  - # 1
    frequency:    1.3664611133
  - # 2
    frequency:    1.3664611133
  - # 3
    frequency:    1.4664544649
  - # 4
    frequency:    1.4664544649
  - # 5
    frequency:    4.5801263597
  - # 6
    frequency:    5.0849559086
  - # 7
    frequency:   10.3202625156
  - # 8
    frequency:   10.3202625156
  - # 9
    frequency:   10.3642214565
  - # 10
    frequency:   10.3642214565
  - # 11
    frequency:   11.6720671138
  - # 12
    frequency:   11.8977209593

- q-position: [    0.0000000,    0.0000000,    0.4700000 ]
  distance:    0.0784024
  band:
  - # 1
    frequency:    1.3814932861
  - # 2
    frequency:    1.3814932861
  - # 3
    frequency:    1.4564328366
  - # 4
    frequency:    1.4564328366
  - # 5
    frequency:    4.6482151249
  - # 6
    frequency:    5.0267213299
  - # 7
    frequency:   10.3255663079
  - # 8
    frequency:   10.3255663079
  - # 9
    frequency:   10.3585753619
  - # 10
    frequency:   10.3585753619
  - # 11
    frequency:   11.7047463902
  - # 12
    frequency:   11.8741845190

- q-position: [    0.0000000,    0.0000000,    0.4800000 ]
  distance:    0.0800705
  band:
  - # 1
    frequency:    1.3957885809
  - # 2
    frequency:    1.3957885809
  - # 3
    frequency:    1.4457218528
  - # 4
    frequency:    1.4457218528
  - # 5
    frequency:    4.7148484553
  - # 6
    frequency:    4.9671304536
  - # 7
    frequency:   10.3309355731
  - # 8
    frequency:   10.3309355731
  - # 9
    frequency:   10.3529606006
  - # 10
    frequency:   10.3529606006
  - # 11
    frequency:   11.7362155983
  - # 12
    frequency:   11.8492685531

- q-position: [    0.0000000,    0.0000000,    0.4900000 ]
  distance:    0.0817386
  band:
  - # 1
    frequency:    1.4093522293
  - # 2
    frequency:    1.4093522293
  - # 3
    frequency:    1.4343109333
  - # 4
    frequency:    1.4343109333
  - # 5
    frequency:    4.7800407895
  - # 6
    frequency:    4.9061650962
  - # 7
    frequency:   10.3363651315
  - # 8
    frequency:   10.3363651315
  - # 9
    frequency:   10.3473833459
  - # 10
    frequency:   10.3473833459
  - # 11
    frequency:   11.7664352093
  - # 12
    frequency:   11.8229899550

- q-position: [    0.0000000,    0.0000000,    0.5000000 ]
  distance:    0.0834068
  band:
  - # 1
    frequency:    1.4221905481
  - # 2
    frequency:    1.4221905481
  - # 3
    frequency:    1.4221905481
  - # 4
    frequency:    1.4221905481
  - # 5
    frequency:    4.8438075646
  - # 6
    frequency:    4.8438075646
  - # 7
    frequency:   10.3418495894
  - # 8
    frequency:   10.3418495894
  - # 9
    frequency:   10.3418495894
  - # 10
    frequency:   10.3418495894
  - # 11
    frequency:   11.7953701738
  - # 12
    frequency:   11.7953701738

- q-position: [    0.0000000,    0.0000000,    0.5000000 ]
  distance:    0.0834068
  band:
  - # 1
    frequency:    1.4221905481
  - # 2
    frequency:    1.4221905481