   4   4   0   0
  0.1956167E+02  0.3805797E-09  0.3805797E-09  0.6237982E-09  0.5000000E-15
   1.0000000000000000E-004
  CAR 
 unknown system                          
     12.12879855    -12.12183380  301      2.35781460      1.00000000
    -12.122  0.0000E+00  0.0000E+00
    -12.041  0.0000E+00  0.0000E+00
    -11.960  0.0000E+00  0.0000E+00
    -11.879  0.0000E+00  0.0000E+00
    -11.798  0.0000E+00  0.0000E+00
    -11.718  0.0000E+00  0.0000E+00
    -11.637  0.0000E+00  0.0000E+00
    -11.556  0.0000E+00  0.0000E+00
    -11.475  0.0000E+00  0.0000E+00
    -11.394  0.0000E+00  0.0000E+00
    -11.313  0.0000E+00  0.0000E+00
    -11.233  0.0000E+00  0.0000E+00
    -11.152  0.3867E-10  0.3126E-11
    -11.071  0.1315E-02  0.1063E-03
    -10.990  0.1563E+00  0.1274E-01
    -10.909  0.1259E+00  0.2291E-01
    -10.828  0.8745E+00  0.9360E-01
    -10.748  0.6500E+00  0.1461E+00
    -10.667  0.1792E+01  0.2910E+00
    -10.586  0.1868E+00  0.3061E+00
    -10.505  0.9124E+00  0.3799E+00
    -10.424  0.2815E+01  0.6074E+00
    -10.343  0.2711E+01  0.8265E+00
    -10.263  0.1970E+01  0.9858E+00
    -10.182  0.1654E+01  0.1119E+01
    -10.101  0.4435E+01  0.1478E+01
    -10.020  0.7593E+01  0.2092E+01
     -9.939  0.3465E+01  0.2372E+01
     -9.858  0.7769E+01  0.3000E+01
     -9.778  0.8900E+01  0.3719E+01
     -9.697  0.3459E+01  0.3999E+01
     -9.616  0.1371E-01  0.4000E+01
     -9.535  0.2819E-09  0.4000E+01
     -9.454  0.0000E+00  0.4000E+01
     -9.373  0.0000E+00  0.4000E+01
     -9.293  0.0000E+00  0.4000E+01
     -9.212  0.0000E+00  0.4000E+01
     -9.131  0.0000E+00  0.4000E+01
     -9.050  0.0000E+00  0.4000E+01
     -8.969  0.0000E+00  0.4000E+01
     -8.888  0.0000E+00  0.4000E+01
     -8.808  0.0000E+00  0.4000E+01
     -8.727  0.0000E+00  0.4000E+01
     -8.646  0.0000E+00  0.4000E+01
     -8.565  0.0000E+00  0.4000E+01
     -8.484  0.0000E+00  0.4000E+01
     -8.403  0.0000E+00  0.4000E+01
     -8.323  0.0000E+00  0.4000E+01
     -8.242  0.0000E+00  0.4000E+01
     -8.161  0.0000E+00  0.4000E+01
     -8.080  0.0000E+00  0.4000E+01
     -7.999  0.0000E+00  0.4000E+01
     -7.918  0.0000E+00  0.4000E+01
     -7.838  0.0000E+00  0.4000E+01
     -7.757  0.0000E+00  0.4000E+01
     -7.676  0.0000E+00  0.4000E+01
     -7.595  0.0000E+00  0.4000E+01
     -7.514  0.0000E+00  0.4000E+01
     -7.433  0.0000E+00  0.4000E+01
     -7.353  0.0000E+00  0.4000E+01
     -7.272  0.0000E+00  0.4000E+01
     -7.191  0.0000E+00  0.4000E+01
     -7.110  0.0000E+00  0.4000E+01
     -7.029  0.0000E+00  0.4000E+01
     -6.948  0.0000E+00  0.4000E+01
     -6.868  0.0000E+00  0.4000E+01
     -6.787  0.0000E+00  0.4000E+01
     -6.706  0.0000E+00  0.4000E+01
     -6.625  0.0000E+00  0.4000E+01
     -6.544  0.0000E+00  0.4000E+01
     -6.463  0.0000E+00  0.4000E+01
     -6.383  0.0000E+00  0.4000E+01
     -6.302  0.0000E+00  0.4000E+01
     -6.221  0.0000E+00  0.4000E+01
     -6.140  0.0000E+00  0.4000E+01
     -6.059  0.0000E+00  0.4000E+01
     -5.978  0.0000E+00  0.4000E+01
     -5.898  0.0000E+00  0.4000E+01
     -5.817  0.0000E+00  0.4000E+01
     -5.736  0.0000E+00  0.4000E+01
     -5.655  0.0000E+00  0.4000E+01
     -5.574  0.0000E+00  0.4000E+01
     -5.493  0.0000E+00  0.4000E+01
     -5.412  0.0000E+00  0.4000E+01
     -5.332  0.0000E+00  0.4000E+01
     -5.251  0.0000E+00  0.4000E+01
     -5.170  0.0000E+00  0.4000E+01
     -5.089  0.0000E+00  0.4000E+01
     -5.008  0.0000E+00  0.4000E+01
     -4.927  0.0000E+00  0.4000E+01
     -4.847  0.0000E+00  0.4000E+01
     -4.766  0.0000E+00  0.4000E+01
     -4.685  0.0000E+00  0.4000E+01
     -4.604  0.0000E+00  0.4000E+01
     -4.523  0.0000E+00  0.4000E+01
     -4.442  0.0000E+00  0.4000E+01
     -4.362  0.2289E-15  0.4000E+01
     -4.281  0.1743E-04  0.4000E+01
     -4.200  0.1876E+01  0.4152E+01
     -4.119  0.2903E+02  0.6498E+01
     -4.038  0.3554E+02  0.9371E+01
     -3.957  0.2688E+02  0.1154E+02
     -3.877  0.2922E+02  0.1391E+02
     -3.796  0.1845E+02  0.1540E+02
     -3.715  0.1510E+02  0.1662E+02
     -3.634  0.4456E+02  0.2022E+02
     -3.553  0.2061E+02  0.2189E+02
     -3.472  0.1101E+02  0.2278E+02
     -3.392  0.5592E+01  0.2323E+02
     -3.311  0.7828E+01  0.2386E+02
     -3.230  0.1720E+01  0.2400E+02
     -3.149  0.1335E+00  0.2401E+02
     -3.068  0.3911E-01  0.2401E+02
     -2.987  0.3474E-04  0.2401E+02
     -2.907  0.4427E+00  0.2405E+02
     -2.826  0.6921E+00  0.2411E+02
     -2.745  0.9225E+00  0.2418E+02
     -2.664  0.8678E+00  0.2425E+02
     -2.583  0.3941E+01  0.2457E+02
     -2.502  0.5352E+01  0.2500E+02
     -2.422  0.4540E+00  0.2504E+02
     -2.341  0.5144E+01  0.2545E+02
     -2.260  0.1868E+01  0.2561E+02
     -2.179  0.1725E+01  0.2574E+02
     -2.098  0.1025E+01  0.2583E+02
     -2.017  0.3804E+01  0.2613E+02
     -1.937  0.2881E+01  0.2637E+02
     -1.856  0.2009E+01  0.2653E+02
     -1.775  0.1849E+01  0.2668E+02
     -1.694  0.4003E+00  0.2671E+02
     -1.613  0.2011E+01  0.2687E+02
     -1.532  0.6540E-02  0.2688E+02
     -1.452  0.1399E+00  0.2689E+02
     -1.371  0.3107E+01  0.2714E+02
     -1.290  0.2338E+01  0.2733E+02
     -1.209  0.2564E+00  0.2735E+02
     -1.128  0.1496E-01  0.2735E+02
     -1.047  0.1678E+01  0.2748E+02
     -0.967  0.8841E+00  0.2756E+02
     -0.886  0.1194E+00  0.2757E+02
     -0.805  0.2964E+01  0.2780E+02
     -0.724  0.4422E+01  0.2816E+02
     -0.643  0.4875E+01  0.2856E+02
     -0.562  0.3047E+01  0.2880E+02
     -0.482  0.1336E+01  0.2891E+02
     -0.401  0.2798E+01  0.2914E+02
     -0.320  0.2725E-01  0.2914E+02
     -0.239  0.6872E-01  0.2914E+02
     -0.158  0.5479E+01  0.2959E+02
     -0.077  0.4114E+01  0.2992E+02
      0.003  0.4726E+00  0.2996E+02
      0.084  0.6667E+00  0.3001E+02
      0.165  0.1817E+01  0.3016E+02
      0.246  0.4681E+01  0.3054E+02
      0.327  0.1475E+01  0.3066E+02
      0.408  0.2911E+01  0.3089E+02
      0.488  0.9589E+01  0.3167E+02
      0.569  0.2779E+01  0.3189E+02
      0.650  0.3052E+01  0.3214E+02
      0.731  0.3979E+01  0.3246E+02
      0.812  0.5604E+01  0.3291E+02
      0.893  0.6532E+01  0.3344E+02
      0.974  0.4166E+01  0.3378E+02
      1.054  0.1718E+01  0.3392E+02
      1.135  0.3957E+01  0.3424E+02
      1.216  0.2907E+01  0.3447E+02
      1.297  0.7270E+00  0.3453E+02
      1.378  0.5194E+01  0.3495E+02
      1.459  0.3808E+01  0.3526E+02
      1.539  0.1107E+01  0.3535E+02
      1.620  0.2053E+01  0.3551E+02
      1.701  0.4818E-01  0.3552E+02
      1.782  0.9931E+00  0.3560E+02
      1.863  0.1944E+01  0.3575E+02
      1.944  0.8463E+00  0.3582E+02
      2.024  0.9924E+00  0.3590E+02
      2.105  0.6899E+00  0.3596E+02
      2.186  0.2209E+00  0.3598E+02
      2.267  0.2832E+00  0.3600E+02
      2.348  0.6894E-03  0.3600E+02
      2.429  0.3893E-11  0.3600E+02
      2.509  0.0000E+00  0.3600E+02
      2.590  0.0000E+00  0.3600E+02
      2.671  0.0000E+00  0.3600E+02
      2.752  0.0000E+00  0.3600E+02
      2.833  0.0000E+00  0.3600E+02
      2.914  0.0000E+00  0.3600E+02
      2.994  0.0000E+00  0.3600E+02
      3.075  0.0000E+00  0.3600E+02
      3.156  0.0000E+00  0.3600E+02
      3.237  0.0000E+00  0.3600E+02
      3.318  0.0000E+00  0.3600E+02
      3.399  0.0000E+00  0.3600E+02
      3.479  0.0000E+00  0.3600E+02
      3.560  0.0000E+00  0.3600E+02
      3.641  0.0000E+00  0.3600E+02
      3.722  0.0000E+00  0.3600E+02
      3.803  0.0000E+00  0.3600E+02
      3.884  0.0000E+00  0.3600E+02
      3.964  0.0000E+00  0.3600E+02
      4.045  0.0000E+00  0.3600E+02
      4.126  0.0000E+00  0.3600E+02
      4.207  0.0000E+00  0.3600E+02
      4.288  0.2653E-11  0.3600E+02
      4.369  0.3978E-03  0.3600E+02
      4.449  0.1433E+00  0.3601E+02
      4.530  0.2814E-01  0.3601E+02
      4.611  0.1436E-06  0.3601E+02
      4.692  0.0000E+00  0.3601E+02
      4.773  0.0000E+00  0.3601E+02
      4.854  0.0000E+00  0.3601E+02
      4.934  0.0000E+00  0.3601E+02
      5.015  0.0000E+00  0.3601E+02
      5.096  0.0000E+00  0.3601E+02
      5.177  0.3095E-10  0.3601E+02
      5.258  0.1422E-02  0.3601E+02
      5.339  0.4055E+00  0.3605E+02
      5.419  0.1146E+00  0.3606E+02
      5.500  0.3240E+00  0.3608E+02
      5.581  0.8343E+00  0.3615E+02
      5.662  0.3730E+00  0.3618E+02
      5.743  0.1223E+01  0.3628E+02
      5.824  0.2998E+01  0.3652E+02
      5.904  0.5851E+00  0.3657E+02
      5.985  0.5942E+00  0.3662E+02
      6.066  0.2777E+01  0.3684E+02
      6.147  0.2698E+01  0.3706E+02
      6.228  0.2105E+00  0.3708E+02
      6.309  0.9416E+00  0.3715E+02
      6.389  0.1577E+01  0.3728E+02
      6.470  0.1322E+02  0.3835E+02
      6.551  0.1541E+01  0.3847E+02
      6.632  0.2217E+01  0.3865E+02
      6.713  0.1234E+01  0.3875E+02
      6.794  0.3238E+00  0.3878E+02
      6.874  0.8487E-01  0.3878E+02
      6.955  0.3572E+01  0.3907E+02
      7.036  0.4721E+00  0.3911E+02
      7.117  0.6537E+00  0.3916E+02
      7.198  0.5610E+01  0.3962E+02
      7.279  0.3672E+01  0.3991E+02
      7.360  0.2471E+01  0.4011E+02
      7.440  0.1950E+01  0.4027E+02
      7.521  0.5849E+00  0.4032E+02
      7.602  0.1020E-04  0.4032E+02
      7.683  0.8554E-08  0.4032E+02
      7.764  0.5857E-01  0.4032E+02
      7.845  0.4353E+01  0.4068E+02
      7.925  0.5590E+01  0.4113E+02
      8.006  0.4800E+01  0.4152E+02
      8.087  0.6110E+01  0.4201E+02
      8.168  0.6667E+01  0.4255E+02
      8.249  0.1974E+01  0.4271E+02
      8.330  0.5625E-01  0.4271E+02
      8.410  0.4412E+01  0.4307E+02
      8.491  0.2058E+01  0.4324E+02
      8.572  0.2620E+01  0.4345E+02
      8.653  0.1156E+01  0.4354E+02
      8.734  0.1082E-01  0.4354E+02
      8.815  0.1590E+00  0.4355E+02
      8.895  0.1309E-01  0.4356E+02
      8.976  0.1946E+01  0.4371E+02
      9.057  0.1813E+01  0.4386E+02
      9.138  0.3090E+01  0.4411E+02
      9.219  0.7639E+01  0.4473E+02
      9.300  0.5222E+01  0.4515E+02
      9.380  0.2096E+01  0.4532E+02
      9.461  0.8929E+00  0.4539E+02
      9.542  0.9431E+00  0.4547E+02
      9.623  0.4742E+01  0.4585E+02
      9.704  0.4409E+01  0.4621E+02
      9.785  0.4994E+01  0.4661E+02
      9.865  0.2068E+01  0.4678E+02
      9.946  0.1739E+00  0.4679E+02
     10.027  0.6892E-02  0.4679E+02
     10.108  0.3202E+00  0.4682E+02
     10.189  0.2972E-01  0.4682E+02
     10.270  0.6986E+00  0.4688E+02
     10.350  0.1106E+01  0.4697E+02
     10.431  0.1936E+01  0.4712E+02
     10.512  0.3472E-01  0.4713E+02
     10.593  0.3650E+01  0.4742E+02
     10.674  0.1152E+01  0.4751E+02
     10.755  0.4004E+01  0.4784E+02
     10.835  0.9807E+00  0.4792E+02
     10.916  0.8694E-04  0.4792E+02
     10.997  0.8548E-01  0.4792E+02
     11.078  0.9375E+00  0.4800E+02
     11.159  0.7892E-02  0.4800E+02
     11.240  0.2320E-09  0.4800E+02
     11.320  0.0000E+00  0.4800E+02
     11.401  0.0000E+00  0.4800E+02
     11.482  0.0000E+00  0.4800E+02
     11.563  0.0000E+00  0.4800E+02
     11.644  0.0000E+00  0.4800E+02
     11.725  0.0000E+00  0.4800E+02
     11.805  0.0000E+00  0.4800E+02
     11.886  0.0000E+00  0.4800E+02
     11.967  0.0000E+00  0.4800E+02
     12.048  0.0000E+00  0.4800E+02
     12.129  0.0000E+00  0.4800E+02
