 vasp.6.4.3 19Mar24 (build Jul  1 2025 23:09:51) complex                         
 executed on             LinuxGNU date 2025.12.09  16:52:18
 running   12 mpi-ranks, with   12 threads/rank, on    1 nodes
 distrk:  each k-point on   12 cores,    1 groups
 distr:  one band on NCORE=   1 cores,   12 groups


--------------------------------------------------------------------------------------------------------


 INCAR:
   GGA = PE
   PREC = Accurate
   ENCUT = 520
   KSPACING = 0.3
   ISMEAR = 0
   SIGMA = 0.03
   EDIFF = 1e-6
   NELM = 120
   NELMIN = 8
   LEPSILON = True

 POTCAR:    PAW_PBE Zn 06Sep2000                  
 POTCAR:    PAW_PBE S 06Sep2000                   
 POTCAR:    PAW_PBE Zn 06Sep2000                  
   SHA256 =  501fddbd8274dd8e9725d4f3de27861d7f1e553a7e18441bc79fed8f346e7f23 Zn/POTCAR             
   COPYR  = (c) Copyright 06Sep2000 Georg Kresse                                                    
   COPYR  = This file is part of the software VASP. Any use, copying, and all other rights are regul
   COPYR  = If you do not have a valid VASP license, you may not use, copy or distribute this file. 
   VRHFIN =Zn: d10 p2                                                                               
   LEXCH  = PE                                                                                      
   EATOM  =  1748.8345 eV,  128.5357 Ry                                                             
                                                                                                    
   TITEL  = PAW_PBE Zn 06Sep2000                                                                    
   LULTRA =        F    use ultrasoft PP ?                                                          
   IUNSCR =        1    unscreen: 0-lin 1-nonlin 2-no                                               
   RPACOR =    2.000    partial core radius                                                         
   POMASS =   65.390; ZVAL   =   12.000    mass and valenz                                          
   RCORE  =    2.300    outmost cutoff radius                                                       
   RWIGS  =    2.400; RWIGS  =    1.270    wigner-seitz radius (au A)                               
   ENMAX  =  276.723; ENMIN  =  207.542 eV                                                          
   RCLOC  =    1.828    cutoff for local pot                                                        
   LCOR   =        T    correct aug charges                                                         
   LPAW   =        T    paw PP                                                                      
   EAUG   =  575.892                                                                                
   DEXC   =    0.000                                                                                
   RMAX   =    2.347    core radius for proj-oper                                                   
   RAUG   =    1.300    factor for augmentation sphere                                              
   RDEP   =    2.324    radius for radial grids                                                     
   RDEPT  =    1.788    core radius for aug-charge                                                  
                                                                                                    
   Atomic configuration                                                                             
    9 entries                                                                                       
     n  l   j            E        occ.                                                              
     1  0  0.50     -9524.6913   2.0000                                                             
     2  0  0.50     -1158.1882   2.0000                                                             
     2  1  1.50     -1003.8506   6.0000                                                             
     3  0  0.50      -129.2194   2.0000                                                             
     3  1  1.50       -83.3890   6.0000                                                             
     3  2  2.50       -10.1410  10.0000                                                             
     4  0  0.50        -5.9785   2.0000                                                             
     4  1  0.50        -4.0817   0.0000                                                             
     4  3  2.50        -1.3606   0.0000                                                             
   Description                                                                                      
     l       E           TYP  RCUT    TYP  RCUT                                                     
     2    -10.1410010     23  2.300                                                                 
     2    -11.5015836     23  2.300                                                                 
     0     -5.9785163     23  2.300                                                                 
     0      1.1858015     23  2.300                                                                 
     1     -2.7211652     23  2.300                                                                 
     1     13.2444212     23  2.300                                                                 
  local pseudopotential read in
  partial core-charges read in
  partial kinetic energy density read in
  atomic valenz-charges read in
  non local Contribution for L=           2  read in
    real space projection operators read in
  non local Contribution for L=           2  read in
    real space projection operators read in
  non local Contribution for L=           0  read in
    real space projection operators read in
  non local Contribution for L=           0  read in
    real space projection operators read in
  non local Contribution for L=           1  read in
    real space projection operators read in
  non local Contribution for L=           1  read in
    real space projection operators read in
    PAW grid and wavefunctions read in

   number of l-projection  operators is LMAX  =           6
   number of lm-projection operators is LMMAX =          18

 POTCAR:    PAW_PBE S 06Sep2000                   
   SHA256 =  0fc7481fb0695f01bdc6462160264c5c84044ae9ec85a907d398b887a2bc3132 S/POTCAR              
   COPYR  = (c) Copyright 06Sep2000 Georg Kresse                                                    
   COPYR  = This file is part of the software VASP. Any use, copying, and all other rights are regul
   COPYR  = If you do not have a valid VASP license, you may not use, copy or distribute this file. 
   VRHFIN =S : s2p4                                                                                 
   LEXCH  = PE                                                                                      
   EATOM  =   276.8230 eV,   20.3459 Ry                                                             
                                                                                                    
   TITEL  = PAW_PBE S 06Sep2000                                                                     
   LULTRA =        F    use ultrasoft PP ?                                                          
   IUNSCR =        1    unscreen: 0-lin 1-nonlin 2-no                                               
   RPACOR =    1.500    partial core radius                                                         
   POMASS =   32.066; ZVAL   =    6.000    mass and valenz                                          
   RCORE  =    1.900    outmost cutoff radius                                                       
   RWIGS  =    2.200; RWIGS  =    1.164    wigner-seitz radius (au A)                               
   ENMAX  =  258.689; ENMIN  =  194.016 eV                                                          
   ICORE  =        2    local potential                                                             
   LCOR   =        T    correct aug charges                                                         
   LPAW   =        T    paw PP                                                                      
   EAUG   =  335.092                                                                                
   DEXC   =    0.000                                                                                
   RMAX   =    1.942    core radius for proj-oper                                                   
   RAUG   =    1.300    factor for augmentation sphere                                              
   RDEP   =    1.954    radius for radial grids                                                     
   RDEPT  =    1.744    core radius for aug-charge                                                  
                                                                                                    
   Atomic configuration                                                                             
    6 entries                                                                                       
     n  l   j            E        occ.                                                              
     1  0  0.50     -2405.8406   2.0000                                                             
     2  0  0.50      -211.7007   2.0000                                                             
     2  1  1.50      -156.4958   6.0000                                                             
     3  0  0.50       -17.2562   2.0000                                                             
     3  1  0.50        -7.0085   4.0000                                                             
     3  2  1.50        -6.8029   0.0000                                                             
   Description                                                                                      
     l       E           TYP  RCUT    TYP  RCUT                                                     
     0    -17.2561641     23  1.900                                                                 
     0    -15.8743224     23  1.900                                                                 
     1     -7.0085400     23  1.900                                                                 
     1     -2.7779785     23  1.900                                                                 
     2     -6.8029130     23  1.900                                                                 
  local pseudopotential read in
  partial core-charges read in
  partial kinetic energy density read in
  atomic valenz-charges read in
  non local Contribution for L=           0  read in
    real space projection operators read in
  non local Contribution for L=           0  read in
    real space projection operators read in
  non local Contribution for L=           1  read in
    real space projection operators read in
  non local Contribution for L=           1  read in
    real space projection operators read in
    PAW grid and wavefunctions read in

   number of l-projection  operators is LMAX  =           4
   number of lm-projection operators is LMMAX =           8

  PAW_PBE Zn 06Sep2000                  :
 energy of atom  1       EATOM=-1748.8345
 kinetic energy error for atom=    0.0029 (will be added to EATOM!!)
  PAW_PBE S 06Sep2000                   :
 energy of atom  2       EATOM= -276.8230
 kinetic energy error for atom=    0.0016 (will be added to EATOM!!)


 POSCAR: Zn2 S2
  positions in direct lattice
  velocities in cartesian coordinates


 exchange-correlation table for PE
   RHO(1)=    0.500       N(1)  =     2000
   RHO(2)=  100.500       N(2)  =     4000



--------------------------------------------------------------------------------------------------------


 ion  position               nearest neighbor table
   1  0.333  0.667  0.000-   4 2.33   4 2.33   4 2.33   3 2.34
   2  0.667  0.333  0.500-   3 2.33   3 2.33   3 2.33   4 2.34
   3  0.333  0.667  0.375-   2 2.33   2 2.33   2 2.33   1 2.34
   4  0.667  0.333  0.875-   1 2.33   1 2.33   1 2.33   2 2.34

  LATTYP: Found a hexagonal cell.
 ALAT       =     3.8057964671
 C/A-ratio  =     1.6390738927
  
  Lattice vectors:
  
 A1 = (   1.9028982335,  -3.2959164221,   0.0000000000)
 A2 = (   1.9028982335,   3.2959164221,   0.0000000000)
 A3 = (   0.0000000000,   0.0000000000,   6.2379816300)


Analysis of symmetry for initial positions (statically):
=====================================================================
 Subroutine PRICEL returns:
 Original cell was already a primitive cell.
 

 Routine SETGRP: Setting up the symmetry group for a 
 hexagonal supercell.


 Subroutine GETGRP returns: Found 12 space group operations
 (whereof  6 operations were pure point group operations)
 out of a pool of 24 trial point group operations.


The static configuration has the point symmetry C_3v.
 The point group associated with its full space group is C_6v.


Analysis of symmetry for dynamics (positions and initial velocities):
=====================================================================
 Subroutine PRICEL returns:
 Original cell was already a primitive cell.
 

 Routine SETGRP: Setting up the symmetry group for a 
 hexagonal supercell.


 Subroutine GETGRP returns: Found 12 space group operations
 (whereof  6 operations were pure point group operations)
 out of a pool of 24 trial point group operations.


The dynamic configuration has the point symmetry C_3v.
 The point group associated with its full space group is C_6v.


 Subroutine INISYM returns: Found 12 space group operations
 (whereof  6 operations are pure point group operations),
 and found     1 'primitive' translations


----------------------------------------------------------------------------------------

                                     Primitive cell                                     

  volume of cell :      78.2467

  direct lattice vectors                    reciprocal lattice vectors
     1.902898234 -3.295916422  0.000000000     0.262757089 -0.151702876  0.000000000
     1.902898234  3.295916422  0.000000000     0.262757089  0.151702876 -0.000000000
     0.000000000  0.000000000  6.237981630    -0.000000000  0.000000000  0.160308263

  length of vectors
     3.805796467  3.805796467  6.237981630     0.303405752  0.303405752  0.160308263

  position of ions in fractional coordinates (direct lattice)
     0.333333333  0.666666667  0.000311508
     0.666666667  0.333333333  0.500311508
     0.333333333  0.666666667  0.374688492
     0.666666667  0.333333333  0.874688492

  ion indices of the primitive-cell ions
   primitive index   ion index
                 1           1
                 2           2
                 3           3
                 4           4

----------------------------------------------------------------------------------------



 KPOINTS: Automatic kpoint scheme                 

Automatic generation of k-mesh.
 Grid dimensions read from file:
 generate k-points for:    6    6    4

 Generating k-lattice:

  Cartesian coordinates                     Fractional coordinates (reciprocal lattice)
     0.043792848 -0.025283813  0.000000000     0.166666667 -0.000000000  0.000000000
     0.043792848  0.025283813 -0.000000000    -0.000000000  0.166666667  0.000000000
    -0.000000000  0.000000000  0.040077066     0.000000000  0.000000000  0.250000000

  Length of vectors
     0.050567625  0.050567625  0.040077066

  Shift w.r.t. Gamma in fractional coordinates (k-lattice)
     0.000000000  0.000000000  0.000000000

 
 Subroutine IBZKPT returns following result:
 ===========================================
 
 Found     21 irreducible k-points:
 
 Following reciprocal coordinates:
            Coordinates               Weight
  0.000000  0.000000  0.000000      1.000000
  0.166667  0.000000  0.000000      6.000000
  0.333333  0.000000  0.000000      6.000000
  0.500000  0.000000  0.000000      3.000000
  0.166667  0.166667  0.000000      6.000000
  0.333333  0.166667  0.000000     12.000000
  0.333333  0.333333  0.000000      2.000000
  0.000000  0.000000  0.250000      2.000000
  0.166667  0.000000  0.250000     12.000000
  0.333333  0.000000  0.250000     12.000000
  0.500000  0.000000  0.250000      6.000000
  0.166667  0.166667  0.250000     12.000000
  0.333333  0.166667  0.250000     24.000000
  0.333333  0.333333  0.250000      4.000000
  0.000000  0.000000  0.500000      1.000000
  0.166667  0.000000  0.500000      6.000000
  0.333333  0.000000  0.500000      6.000000
  0.500000  0.000000  0.500000      3.000000
  0.166667  0.166667  0.500000      6.000000
  0.333333  0.166667  0.500000     12.000000
  0.333333  0.333333  0.500000      2.000000
 
 Following cartesian coordinates:
            Coordinates               Weight
  0.000000 -0.000000  0.000000      1.000000
  0.043793 -0.025284  0.000000      6.000000
  0.087586 -0.050568  0.000000      6.000000
  0.131379 -0.075851  0.000000      3.000000
  0.087586  0.000000  0.000000      6.000000
  0.131379 -0.025284  0.000000     12.000000
  0.175171  0.000000  0.000000      2.000000
  0.000000 -0.000000  0.040077      2.000000
  0.043793 -0.025284  0.040077     12.000000
  0.087586 -0.050568  0.040077     12.000000
  0.131379 -0.075851  0.040077      6.000000
  0.087586  0.000000  0.040077     12.000000
  0.131379 -0.025284  0.040077     24.000000
  0.175171  0.000000  0.040077      4.000000
  0.000000 -0.000000  0.080154      1.000000
  0.043793 -0.025284  0.080154      6.000000
  0.087586 -0.050568  0.080154      6.000000
  0.131379 -0.075851  0.080154      3.000000
  0.087586  0.000000  0.080154      6.000000
  0.131379 -0.025284  0.080154     12.000000
  0.175171  0.000000  0.080154      2.000000
 
 
 Subroutine IBZKPT_HF returns following result:
 ==============================================
 
 Found    144 k-points in 1st BZ
 the following    144 k-points will be used (e.g. in the exchange kernel)
 Following reciprocal coordinates:   # in IRBZ
  0.000000  0.000000  0.000000    0.00694444   1 t-inv F
  0.166667  0.000000  0.000000    0.00694444   2 t-inv F
  0.333333  0.000000  0.000000    0.00694444   3 t-inv F
  0.500000  0.000000  0.000000    0.00694444   4 t-inv F
  0.166667  0.166667  0.000000    0.00694444   5 t-inv F
  0.333333  0.166667  0.000000    0.00694444   6 t-inv F
  0.333333  0.333333  0.000000    0.00694444   7 t-inv F
  0.000000  0.000000  0.250000    0.00694444   8 t-inv F
  0.166667  0.000000  0.250000    0.00694444   9 t-inv F
  0.333333  0.000000  0.250000    0.00694444  10 t-inv F
  0.500000  0.000000  0.250000    0.00694444  11 t-inv F
  0.166667  0.166667  0.250000    0.00694444  12 t-inv F
  0.333333  0.166667  0.250000    0.00694444  13 t-inv F
  0.333333  0.333333  0.250000    0.00694444  14 t-inv F
  0.000000  0.000000  0.500000    0.00694444  15 t-inv F
  0.166667  0.000000  0.500000    0.00694444  16 t-inv F
  0.333333  0.000000  0.500000    0.00694444  17 t-inv F
  0.500000  0.000000  0.500000    0.00694444  18 t-inv F
  0.166667  0.166667  0.500000    0.00694444  19 t-inv F
  0.333333  0.166667  0.500000    0.00694444  20 t-inv F
  0.333333  0.333333  0.500000    0.00694444  21 t-inv F
 -0.166667  0.166667  0.000000    0.00694444   2 t-inv F
  0.000000 -0.166667  0.000000    0.00694444   2 t-inv F
 -0.000000  0.166667  0.000000    0.00694444   2 t-inv F
 -0.166667 -0.000000  0.000000    0.00694444   2 t-inv F
  0.166667 -0.166667  0.000000    0.00694444   2 t-inv F
 -0.333333  0.333333  0.000000    0.00694444   3 t-inv F
  0.000000 -0.333333  0.000000    0.00694444   3 t-inv F
 -0.000000  0.333333  0.000000    0.00694444   3 t-inv F
 -0.333333 -0.000000  0.000000    0.00694444   3 t-inv F
  0.333333 -0.333333  0.000000    0.00694444   3 t-inv F
 -0.500000  0.500000  0.000000    0.00694444   4 t-inv F
  0.000000 -0.500000  0.000000    0.00694444   4 t-inv F
 -0.333333  0.166667  0.000000    0.00694444   5 t-inv F
  0.166667 -0.333333  0.000000    0.00694444   5 t-inv F
 -0.166667  0.333333  0.000000    0.00694444   5 t-inv F
  0.333333 -0.166667  0.000000    0.00694444   5 t-inv F
 -0.166667 -0.166667  0.000000    0.00694444   5 t-inv F
 -0.500000  0.333333  0.000000    0.00694444   6 t-inv F
  0.166667 -0.500000  0.000000    0.00694444   6 t-inv F
 -0.333333  0.500000  0.000000    0.00694444   6 t-inv F
  0.500000 -0.166667  0.000000    0.00694444   6 t-inv F
 -0.166667 -0.333333  0.000000    0.00694444   6 t-inv F
 -0.166667  0.500000  0.000000    0.00694444   6 t-inv F
 -0.333333 -0.166667  0.000000    0.00694444   6 t-inv F
  0.500000 -0.333333  0.000000    0.00694444   6 t-inv F
  0.166667  0.333333  0.000000    0.00694444   6 t-inv F
  0.333333 -0.500000  0.000000    0.00694444   6 t-inv F
 -0.500000  0.166667  0.000000    0.00694444   6 t-inv F
 -0.333333  0.666667  0.000000    0.00694444   7 t-inv F
 -0.166667  0.166667  0.250000    0.00694444   9 t-inv F
  0.000000 -0.166667  0.250000    0.00694444   9 t-inv F
 -0.000000  0.166667  0.250000    0.00694444   9 t-inv F
 -0.166667 -0.000000  0.250000    0.00694444   9 t-inv F
  0.166667 -0.166667  0.250000    0.00694444   9 t-inv F
 -0.333333  0.333333  0.250000    0.00694444  10 t-inv F
  0.000000 -0.333333  0.250000    0.00694444  10 t-inv F
 -0.000000  0.333333  0.250000    0.00694444  10 t-inv F
 -0.333333 -0.000000  0.250000    0.00694444  10 t-inv F
  0.333333 -0.333333  0.250000    0.00694444  10 t-inv F
 -0.500000  0.500000  0.250000    0.00694444  11 t-inv F
  0.000000 -0.500000  0.250000    0.00694444  11 t-inv F
 -0.333333  0.166667  0.250000    0.00694444  12 t-inv F
  0.166667 -0.333333  0.250000    0.00694444  12 t-inv F
 -0.166667  0.333333  0.250000    0.00694444  12 t-inv F
  0.333333 -0.166667  0.250000    0.00694444  12 t-inv F
 -0.166667 -0.166667  0.250000    0.00694444  12 t-inv F
 -0.500000  0.333333  0.250000    0.00694444  13 t-inv F
  0.166667 -0.500000  0.250000    0.00694444  13 t-inv F
 -0.333333  0.500000  0.250000    0.00694444  13 t-inv F
  0.500000 -0.166667  0.250000    0.00694444  13 t-inv F
 -0.166667 -0.333333  0.250000    0.00694444  13 t-inv F
 -0.166667  0.500000  0.250000    0.00694444  13 t-inv F
 -0.333333 -0.166667  0.250000    0.00694444  13 t-inv F
  0.500000 -0.333333  0.250000    0.00694444  13 t-inv F
  0.166667  0.333333  0.250000    0.00694444  13 t-inv F
  0.333333 -0.500000  0.250000    0.00694444  13 t-inv F
 -0.500000  0.166667  0.250000    0.00694444  13 t-inv F
 -0.333333  0.666667  0.250000    0.00694444  14 t-inv F
 -0.166667  0.166667  0.500000    0.00694444  16 t-inv F
  0.000000 -0.166667  0.500000    0.00694444  16 t-inv F
 -0.000000  0.166667  0.500000    0.00694444  16 t-inv F
 -0.166667 -0.000000  0.500000    0.00694444  16 t-inv F
  0.166667 -0.166667  0.500000    0.00694444  16 t-inv F
 -0.333333  0.333333  0.500000    0.00694444  17 t-inv F
  0.000000 -0.333333  0.500000    0.00694444  17 t-inv F
 -0.000000  0.333333  0.500000    0.00694444  17 t-inv F
 -0.333333 -0.000000  0.500000    0.00694444  17 t-inv F
  0.333333 -0.333333  0.500000    0.00694444  17 t-inv F
 -0.500000  0.500000  0.500000    0.00694444  18 t-inv F
  0.000000 -0.500000  0.500000    0.00694444  18 t-inv F
 -0.333333  0.166667  0.500000    0.00694444  19 t-inv F
  0.166667 -0.333333  0.500000    0.00694444  19 t-inv F
 -0.166667  0.333333  0.500000    0.00694444  19 t-inv F
  0.333333 -0.166667  0.500000    0.00694444  19 t-inv F
 -0.166667 -0.166667  0.500000    0.00694444  19 t-inv F
 -0.500000  0.333333  0.500000    0.00694444  20 t-inv F
  0.166667 -0.500000  0.500000    0.00694444  20 t-inv F
 -0.333333  0.500000  0.500000    0.00694444  20 t-inv F
  0.500000 -0.166667  0.500000    0.00694444  20 t-inv F
 -0.166667 -0.333333  0.500000    0.00694444  20 t-inv F
 -0.166667  0.500000  0.500000    0.00694444  20 t-inv F
 -0.333333 -0.166667  0.500000    0.00694444  20 t-inv F
  0.500000 -0.333333  0.500000    0.00694444  20 t-inv F
  0.166667  0.333333  0.500000    0.00694444  20 t-inv F
  0.333333 -0.500000  0.500000    0.00694444  20 t-inv F
 -0.500000  0.166667  0.500000    0.00694444  20 t-inv F
 -0.333333  0.666667  0.500000    0.00694444  21 t-inv F
 -0.000000 -0.000000 -0.250000    0.00694444   8 t-inv T
 -0.166667 -0.000000 -0.250000    0.00694444   9 t-inv T
  0.166667 -0.166667 -0.250000    0.00694444   9 t-inv T
 -0.000000  0.166667 -0.250000    0.00694444   9 t-inv T
  0.000000 -0.166667 -0.250000    0.00694444   9 t-inv T
  0.166667  0.000000 -0.250000    0.00694444   9 t-inv T
 -0.166667  0.166667 -0.250000    0.00694444   9 t-inv T
 -0.333333 -0.000000 -0.250000    0.00694444  10 t-inv T
  0.333333 -0.333333 -0.250000    0.00694444  10 t-inv T
 -0.000000  0.333333 -0.250000    0.00694444  10 t-inv T
  0.000000 -0.333333 -0.250000    0.00694444  10 t-inv T
  0.333333  0.000000 -0.250000    0.00694444  10 t-inv T
 -0.333333  0.333333 -0.250000    0.00694444  10 t-inv T
 -0.500000 -0.000000 -0.250000    0.00694444  11 t-inv T
  0.500000 -0.500000 -0.250000    0.00694444  11 t-inv T
 -0.000000  0.500000 -0.250000    0.00694444  11 t-inv T
 -0.166667 -0.166667 -0.250000    0.00694444  12 t-inv T
  0.333333 -0.166667 -0.250000    0.00694444  12 t-inv T
 -0.166667  0.333333 -0.250000    0.00694444  12 t-inv T
  0.166667 -0.333333 -0.250000    0.00694444  12 t-inv T
 -0.333333  0.166667 -0.250000    0.00694444  12 t-inv T
  0.166667  0.166667 -0.250000    0.00694444  12 t-inv T
 -0.333333 -0.166667 -0.250000    0.00694444  13 t-inv T
  0.500000 -0.333333 -0.250000    0.00694444  13 t-inv T
 -0.166667  0.500000 -0.250000    0.00694444  13 t-inv T
  0.333333 -0.500000 -0.250000    0.00694444  13 t-inv T
 -0.500000  0.166667 -0.250000    0.00694444  13 t-inv T
  0.166667  0.333333 -0.250000    0.00694444  13 t-inv T
  0.166667 -0.500000 -0.250000    0.00694444  13 t-inv T
  0.333333  0.166667 -0.250000    0.00694444  13 t-inv T
 -0.500000  0.333333 -0.250000    0.00694444  13 t-inv T
 -0.166667 -0.333333 -0.250000    0.00694444  13 t-inv T
 -0.333333  0.500000 -0.250000    0.00694444  13 t-inv T
  0.500000 -0.166667 -0.250000    0.00694444  13 t-inv T
 -0.333333 -0.333333 -0.250000    0.00694444  14 t-inv T
  0.333333 -0.666667 -0.250000    0.00694444  14 t-inv T


--------------------------------------------------------------------------------------------------------




 Dimension of arrays:
   k-points           NKPTS =     21   k-points in BZ     NKDIM =     21   number of bands    NBANDS=     24
   number of dos      NEDOS =    301   number of ions     NIONS =      4
   non local maximal  LDIM  =      6   non local SUM 2l+1 LMDIM =     18
   total plane-waves  NPLWV =  37632
   max r-space proj   IRMAX =      1   max aug-charges    IRDMAX=  15350
   dimension x,y,z NGX =    28 NGY =   28 NGZ =   48
   dimension x,y,z NGXF=    56 NGYF=   56 NGZF=   96
   support grid    NGXF=    56 NGYF=   56 NGZF=   96
   ions per type =               2   2
   NGX,Y,Z   is equivalent  to a cutoff of  12.23, 12.23, 12.79 a.u.
   NGXF,Y,Z  is equivalent  to a cutoff of  24.46, 24.46, 25.58 a.u.

 SYSTEM =  unknown system                          
 POSCAR =  Zn2 S2                                  

 Startparameter for this run:
   NWRITE =      2    write-flag & timer
   PREC   = accura    normal or accurate (medium, high low for compatibility)
   ISTART =      1    job   : 0-new  1-cont  2-samecut
   ICHARG =      0    charge: 1-file 2-atom 10-const
   ISPIN  =      1    spin polarized calculation?
   LNONCOLLINEAR =      F non collinear calculations
   LSORBIT =      F    spin-orbit coupling
   INIWAV =      1    electr: 0-lowe 1-rand  2-diag
   LASPH  =      F    aspherical Exc in radial PAW
 Electronic Relaxation 1
   ENCUT  =  520.0 eV  38.22 Ry    6.18 a.u.   7.08  7.08 11.60*2*pi/ulx,y,z
   ENINI  =  520.0     initial cutoff
   ENAUG  =  575.9 eV  augmentation charge cutoff
   NELM   =    120;   NELMIN=  8; NELMDL=  0     # of ELM steps 
   EDIFF  = 0.1E-05   stopping-criterion for ELM
   LREAL  =      F    real-space projection
   NLSPLINE    = F    spline interpolate recip. space projectors
   LCOMPAT=      F    compatible to vasp.4.4
   GGA_COMPAT  = T    GGA compatible to vasp.4.4-vasp.4.6
   LMAXPAW     = -100 max onsite density
   LMAXMIX     =    2 max onsite mixed and CHGCAR
   VOSKOWN=      0    Vosko Wilk Nusair interpolation
   ROPT   =    0.00000   0.00000
 Ionic relaxation
   EDIFFG = 0.1E-04   stopping-criterion for IOM
   NSW    =      0    number of steps for IOM
   NBLOCK =      1;   KBLOCK =      1    inner block; outer block 
   IBRION =     -1    ionic relax: 0-MD 1-quasi-New 2-CG
   NFREE  =      0    steps in history (QN), initial steepest desc. (CG)
   ISIF   =      2    stress and relaxation
   IWAVPR =     10    prediction:  0-non 1-charg 2-wave 3-comb
   ISYM   =      2    0-nonsym 1-usesym 2-fastsym
   LCORR  =      T    Harris-Foulkes like correction to forces

   POTIM  = 0.5000    time-step for ionic-motion
   TEIN   =    0.0    initial temperature
   TEBEG  =    0.0;   TEEND  =   0.0 temperature during run
   SMASS  =  -3.00    Nose mass-parameter (am)
   estimated Nose-frequenzy (Omega)   =  0.10E-29 period in steps = 0.13E+47 mass=  -0.331E-27a.u.
   SCALEE = 1.0000    scale energy and forces
   NPACO  =    256;   APACO  = 10.0  distance and # of slots for P.C.
   PSTRESS=    0.0 pullay stress

  Mass of Ions in am
   POMASS =  65.39 32.07
  Ionic Valenz
   ZVAL   =  12.00  6.00
  Atomic Wigner-Seitz radii
   RWIGS  =  -1.00 -1.00
  virtual crystal weights 
   VCA    =   1.00  1.00
   NELECT =      36.0000    total number of electrons
   NUPDOWN=      -1.0000    fix difference up-down

 DOS related values:
   EMIN   =  10.00;   EMAX   =-10.00  energy-range for DOS
   EFERMI =   0.00;   METHOD = LEGACY      
   ISMEAR =     0;   SIGMA  =   0.03  broadening in eV -4-tet -1-fermi 0-gaus

 Electronic relaxation 2 (details)
   IALGO  =     38    algorithm
   LDIAG  =      T    sub-space diagonalisation (order eigenvalues)
   LSUBROT=      F    optimize rotation matrix (better conditioning)
   TURBO    =      0    0=normal 1=particle mesh
   IRESTART =      0    0=no restart 2=restart with 2 vectors
   NREBOOT  =      0    no. of reboots
   NMIN     =      0    reboot dimension
   EREF     =   0.00    reference energy to select bands
   IMIX   =      4    mixing-type and parameters
     AMIX     =   0.40;   BMIX     =  1.00
     AMIX_MAG =   1.60;   BMIX_MAG =  1.00
     AMIN     =   0.10
     WC   =   100.;   INIMIX=   1;  MIXPRE=   1;  MAXMIX= -45

 Intra band minimization:
   WEIMIN = 0.0000     energy-eigenvalue tresh-hold
   EBREAK =  0.10E-07  absolut break condition
   DEPER  =   0.30     relativ break condition  

   TIME   =   0.40     timestep for ELM

  volume/ion in A,a.u.               =      19.56       132.01
  Fermi-wavevector in a.u.,A,eV,Ry     =   1.263825  2.388284 21.731966  1.597254
  Thomas-Fermi vector in A             =   2.397162

 Write flags
   LWAVE        =      T    write WAVECAR
   LDOWNSAMPLE  =      F    k-point downsampling of WAVECAR
   LCHARG       =      T    write CHGCAR
   LVTOT        =      F    write LOCPOT, total local potential
   LVHAR        =      F    write LOCPOT, Hartree potential only
   WRT_POTENTIAL= false  ! write potential to hdf5 file
   LELF         =      F    write electronic localiz. function (ELF)
   LORBIT       =      0    0 simple, 1 ext, 2 COOP (PROOUT), +10 PAW based schemes


 Dipole corrections
   LMONO      =      F    monopole corrections only (constant potential shift)
   LDIPOL     =      F    correct potential (dipole corrections)
   IDIPOL     =      0    1-x, 2-y, 3-z, 4-all directions 
   EPSILON    =  1.0000000 bulk dielectric constant
   LVACPOTAV  =      F  vacuum potentials using an averaging scheme for the charge density
   VACPOTFLAT =  0.1000000 required flatness to determine vacuum potential
 Exchange correlation treatment:
   GGA     = PE    functional components
   XC_C    = 1    coefficients multiplying the functional components
   LIBXC   =     F    Libxc                    
   VOSKOWN =     0    Vosko Wilk Nusair interpolation
   LHFCALC =     F    Hartree Fock is set to
   LHFONE  =     F    Hartree Fock one center treatment
   AEXX    =    0.0000 exact exchange contribution

 Parameters of functionals:
   PE:
     No parameter

 Van der Waals corrections
   IVDW    =     0    specifies the selected vdW correction

 Linear response parameters
   LEPSILON=     T    determine dielectric tensor
   LRPA    =     F    only Hartree local field effects (RPA)
   LNABLA  =     F    use nabla operator in PAW spheres
   LVEL    =     F    velocity operator in full k-point grid
   CSHIFT  =0.1000    complex shift for real part using Kramers Kronig
   OMEGAMAX=  -1.0    maximum frequency
   DEG_THRESHOLD= 0.2000000E-02 threshold for treating states as degnerate
   RTIME   =   -0.100 relaxation time in fs
  (WPLASMAI=    0.000 imaginary part of plasma frequency in eV, 0.658/RTIME)
   DFIELD  = 0.0000000 0.0000000 0.0000000 field for delta impulse in time

  Optional k-point grid parameters
   LKPOINTS_OPT  =     F    use optional k-point grid
   KPOINTS_OPT_MODE=     1    mode for optional k-point grid

 Orbital magnetization related:
   ORBITALMAG=     F  switch on orbital magnetization
   LCHIMAG   =     F  perturbation theory with respect to B field
   DQ        =  0.001000  dq finite difference perturbation B field
   LLRAUG    =     F  two centre corrections for induced B field
   LBONE     =     F  B-component reconstruction in AE one-centre
   LVGVCALC  =     T  calculate vGv susceptibility
   LVGVAPPL  =     F  apply vGv susceptibility instead of pGv for G=0

 Random number generation:
   RANDOM_GENERATOR = DEFAULT
   PCG_SEED         = not used


--------------------------------------------------------------------------------------------------------


 Static calculation
 charge density and potential will be updated during run
 non-spin polarized calculation
 Variant of blocked Davidson
 Davidson routine will perform the subspace rotation
 perform sub-space diagonalisation
    after iterative eigenvector-optimisation
 modified Broyden-mixing scheme, WC =      100.0
 initial mixing is a Kerker type mixing with AMIX =  0.4000 and BMIX =      1.0000
 Hartree-type preconditioning will be used
 using additional bands            6
 reciprocal scheme for non local part
 use partial core corrections
 calculate Harris-corrections to forces   (improved forces if not selfconsistent)
 use gradient corrections 
 use of overlap-Matrix (Vanderbilt PP)
 Gauss-broadening in eV      SIGMA  =   0.03


--------------------------------------------------------------------------------------------------------


  energy-cutoff  :      520.00
  volume of cell :       78.25
      direct lattice vectors                 reciprocal lattice vectors
     1.902898234 -3.295916422  0.000000000     0.262757089 -0.151702876  0.000000000
     1.902898234  3.295916422  0.000000000     0.262757089  0.151702876 -0.000000000
     0.000000000  0.000000000  6.237981630    -0.000000000  0.000000000  0.160308263

  length of vectors
     3.805796467  3.805796467  6.237981630     0.303405752  0.303405752  0.160308263



 old parameters found on file WAVECAR:
  energy-cutoff  :      520.00
  volume of cell :       78.25
      direct lattice vectors                 reciprocal lattice vectors
     1.902898234 -3.295916422  0.000000000     0.262757089 -0.151702876  0.000000000
     1.902898234  3.295916422  0.000000000     0.262757089  0.151702876 -0.000000000
     0.000000000  0.000000000  6.237981630    -0.000000000  0.000000000  0.160308263

  length of vectors


 k-points in units of 2pi/SCALE and weight: Automatic kpoint scheme                 
   0.00000000  0.00000000  0.00000000       0.007
   0.04379285 -0.02528381  0.00000000       0.042
   0.08758570 -0.05056763  0.00000000       0.042
   0.13137854 -0.07585144  0.00000000       0.021
   0.08758570 -0.00000000  0.00000000       0.042
   0.13137854 -0.02528381  0.00000000       0.083
   0.17517139 -0.00000000  0.00000000       0.014
   0.00000000  0.00000000  0.04007707       0.014
   0.04379285 -0.02528381  0.04007707       0.083
   0.08758570 -0.05056763  0.04007707       0.083
   0.13137854 -0.07585144  0.04007707       0.042
   0.08758570 -0.00000000  0.04007707       0.083
   0.13137854 -0.02528381  0.04007707       0.167
   0.17517139 -0.00000000  0.04007707       0.028
   0.00000000  0.00000000  0.08015413       0.007
   0.04379285 -0.02528381  0.08015413       0.042
   0.08758570 -0.05056763  0.08015413       0.042
   0.13137854 -0.07585144  0.08015413       0.021
   0.08758570 -0.00000000  0.08015413       0.042
   0.13137854 -0.02528381  0.08015413       0.083
   0.17517139 -0.00000000  0.08015413       0.014

 k-points in reciprocal lattice and weights: Automatic kpoint scheme                 
   0.00000000  0.00000000  0.00000000       0.007
   0.16666667  0.00000000  0.00000000       0.042
   0.33333333  0.00000000  0.00000000       0.042
   0.50000000  0.00000000  0.00000000       0.021
   0.16666667  0.16666667  0.00000000       0.042
   0.33333333  0.16666667  0.00000000       0.083
   0.33333333  0.33333333  0.00000000       0.014
   0.00000000  0.00000000  0.25000000       0.014
   0.16666667  0.00000000  0.25000000       0.083
   0.33333333  0.00000000  0.25000000       0.083
   0.50000000  0.00000000  0.25000000       0.042
   0.16666667  0.16666667  0.25000000       0.083
   0.33333333  0.16666667  0.25000000       0.167
   0.33333333  0.33333333  0.25000000       0.028
   0.00000000  0.00000000  0.50000000       0.007
   0.16666667  0.00000000  0.50000000       0.042
   0.33333333  0.00000000  0.50000000       0.042
   0.50000000  0.00000000  0.50000000       0.021
   0.16666667  0.16666667  0.50000000       0.042
   0.33333333  0.16666667  0.50000000       0.083
   0.33333333  0.33333333  0.50000000       0.014

 position of ions in fractional coordinates (direct lattice) 
   0.33333333  0.66666667  0.00031151
   0.66666667  0.33333333  0.50031151
   0.33333333  0.66666667  0.37468849
   0.66666667  0.33333333  0.87468849

 position of ions in cartesian coordinates  (Angst):
   1.90289823  1.09863881  0.00194318
   1.90289823 -1.09863881  3.12093399
   1.90289823  1.09863881  2.33729993
   1.90289823 -1.09863881  5.45629075



--------------------------------------------------------------------------------------------------------


 k-point     1 :   0.0000 0.0000 0.0000  plane waves:    2093
 k-point     2 :   0.1667 0.0000 0.0000  plane waves:    2114
 k-point     3 :   0.3333 0.0000 0.0000  plane waves:    2112
 k-point     4 :   0.5000 0.0000 0.0000  plane waves:    2100
 k-point     5 :   0.1667 0.1667 0.0000  plane waves:    2101
 k-point     6 :   0.3333 0.1667 0.0000  plane waves:    2111
 k-point     7 :   0.3333 0.3333 0.0000  plane waves:    2121
 k-point     8 :   0.0000 0.0000 0.2500  plane waves:    2099
 k-point     9 :   0.1667 0.0000 0.2500  plane waves:    2096
 k-point    10 :   0.3333 0.0000 0.2500  plane waves:    2100
 k-point    11 :   0.5000 0.0000 0.2500  plane waves:    2116
 k-point    12 :   0.1667 0.1667 0.2500  plane waves:    2106
 k-point    13 :   0.3333 0.1667 0.2500  plane waves:    2112
 k-point    14 :   0.3333 0.3333 0.2500  plane waves:    2115
 k-point    15 :   0.0000 0.0000 0.5000  plane waves:    2076
 k-point    16 :   0.1667 0.0000 0.5000  plane waves:    2078
 k-point    17 :   0.3333 0.0000 0.5000  plane waves:    2108
 k-point    18 :   0.5000 0.0000 0.5000  plane waves:    2116
 k-point    19 :   0.1667 0.1667 0.5000  plane waves:    2118
 k-point    20 :   0.3333 0.1667 0.5000  plane waves:    2112
 k-point    21 :   0.3333 0.3333 0.5000  plane waves:    2130

 maximum and minimum number of plane-waves per node :      2130     2076

 maximum number of plane-waves:      2130
 maximum index in each direction: 
   IXMAX=    7   IYMAX=    7   IZMAX=   11
   IXMIN=   -7   IYMIN=   -7   IZMIN=  -12


 serial   3D FFT for wavefunctions
 parallel 3D FFT for charge:
    minimum data exchange during FFTs selected (reduces bandwidth)


 total amount of memory used by VASP MPI-rank0    48705. kBytes
=======================================================================

   base      :      30000. kBytes
   nonl-proj :      13055. kBytes
   fftplans  :       1068. kBytes
   grid      :       3045. kBytes
   one-center:         62. kBytes
   wavefun   :       1475. kBytes

     INWAV:  cpu time      0.0547: real time      0.0573
 Broyden mixing: mesh for mixing (old mesh)
   NGX = 15   NGY = 15   NGZ = 23
  (NGX  = 56   NGY  = 56   NGZ  = 96)
  gives a total of   5175 points

 charge density for first step will be calculated from the start-wavefunctions


--------------------------------------------------------------------------------------------------------


 Maximum index for augmentation-charges         1283 (set IRDMAX)


--------------------------------------------------------------------------------------------------------


 initial charge from wavefunction
 First call to EWALD:  gamma=   0.414
 Maximum number of real-space cells 3x 3x 2
 Maximum number of reciprocal cells 2x 2x 4

    FEWALD:  cpu time      0.1088: real time      0.1406


--------------------------------------- Ionic step        1  -------------------------------------------




--------------------------------------- Iteration      1(   1)  ---------------------------------------


    POTLOK:  cpu time      0.1584: real time      0.2076
    SETDIJ:  cpu time      0.0025: real time      0.0034
     EDDAV:  cpu time      4.4547: real time      4.7809
       DOS:  cpu time      0.0003: real time      0.0004
    CHARGE:  cpu time      0.1772: real time      0.1805
    MIXING:  cpu time      0.0166: real time      0.0154
    --------------------------------------------
      LOOP:  cpu time      4.8096: real time      5.1882

 eigenvalue-minimisations  :   576
 total energy-change (2. order) :-0.1366744E+02  (-0.1282241E-10)
 number of electron      35.9999977 magnetization 
 augmentation part       14.4456193 magnetization 

 Broyden mixing:
  rms(total) = 0.23274E-05    rms(broyden)= 0.23274E-05
  rms(prec ) = 0.26935E-05
  weight for this iteration     100.00

 Free energy of the ion-electron system (eV)
  ---------------------------------------------------
  alpha Z        PSCENC =       144.51722449
  Ewald energy   TEWEN  =     -2510.86064844
  -Hartree energ DENC   =     -1366.99516183
  -exchange      EXHF   =         0.00000000
  -V(xc)+E(xc)   XCENC  =       139.17796043
  PAW double counting   =      4363.52866775    -4713.84792055
  entropy T*S    EENTRO =        -0.00000000
  eigenvalues    EBANDS =      -120.49358657
  atomic energy  EATOM  =      4051.30602026
  Solvation  Ediel_sol  =         0.00000000
  ---------------------------------------------------
  free energy    TOTEN  =       -13.66744446 eV

  energy without entropy =      -13.66744446  energy(sigma->0) =      -13.66744446


--------------------------------------------------------------------------------------------------------




--------------------------------------- Iteration      1(   2)  ---------------------------------------


    POTLOK:  cpu time      0.1114: real time      0.1064
    SETDIJ:  cpu time      0.0139: real time      0.0135
     EDDAV:  cpu time      5.0956: real time      5.3178
       DOS:  cpu time      0.0001: real time      0.0001
    CHARGE:  cpu time      0.1381: real time      0.1667
    MIXING:  cpu time      0.0053: real time      0.0057
    --------------------------------------------
      LOOP:  cpu time      5.3644: real time      5.6103

 eigenvalue-minimisations  :   576
 total energy-change (2. order) :-0.5811671E-09  (-0.4571650E-11)
 number of electron      35.9999977 magnetization 
 augmentation part       14.4456183 magnetization 

 Broyden mixing:
  rms(total) = 0.90023E-06    rms(broyden)= 0.90022E-06
  rms(prec ) = 0.92385E-06
  weight for this iteration     100.00

 eigenvalues of (default mixing * dielectric matrix)
  average eigenvalue GAMMA=   0.9901
  0.9901

 Free energy of the ion-electron system (eV)
  ---------------------------------------------------
  alpha Z        PSCENC =       144.51722449
  Ewald energy   TEWEN  =     -2510.86064844
  -Hartree energ DENC   =     -1366.99523277
  -exchange      EXHF   =         0.00000000
  -V(xc)+E(xc)   XCENC  =       139.17796359
  PAW double counting   =      4363.52865838    -4713.84795236
  entropy T*S    EENTRO =        -0.00000000
  eigenvalues    EBANDS =      -120.49347762
  atomic energy  EATOM  =      4051.30602026
  Solvation  Ediel_sol  =         0.00000000
  ---------------------------------------------------
  free energy    TOTEN  =       -13.66744446 eV

  energy without entropy =      -13.66744446  energy(sigma->0) =      -13.66744446


--------------------------------------------------------------------------------------------------------




--------------------------------------- Iteration      1(   3)  ---------------------------------------


    POTLOK:  cpu time      0.1058: real time      0.1040
    SETDIJ:  cpu time      0.0046: real time      0.0043
     EDDAV:  cpu time      4.8722: real time      4.9747
       DOS:  cpu time      0.0001: real time      0.0001
    CHARGE:  cpu time      0.2046: real time      0.1736
    MIXING:  cpu time      0.0064: real time      0.0063
    --------------------------------------------
      LOOP:  cpu time      5.1938: real time      5.2630

 eigenvalue-minimisations  :   576
 total energy-change (2. order) : 0.1045919E-09  (-0.8498272E-12)
 number of electron      35.9999977 magnetization 
 augmentation part       14.4456185 magnetization 

 Broyden mixing:
  rms(total) = 0.81865E-06    rms(broyden)= 0.81865E-06
  rms(prec ) = 0.84513E-06
  weight for this iteration     100.00

 eigenvalues of (default mixing * dielectric matrix)
  average eigenvalue GAMMA=   2.8286
  0.8064  4.8509

 Free energy of the ion-electron system (eV)
  ---------------------------------------------------
  alpha Z        PSCENC =       144.51722449
  Ewald energy   TEWEN  =     -2510.86064844
  -Hartree energ DENC   =     -1366.99522771
  -exchange      EXHF   =         0.00000000
  -V(xc)+E(xc)   XCENC  =       139.17796338
  PAW double counting   =      4363.52870416    -4713.84799328
  entropy T*S    EENTRO =        -0.00000000
  eigenvalues    EBANDS =      -120.49348731
  atomic energy  EATOM  =      4051.30602026
  Solvation  Ediel_sol  =         0.00000000
  ---------------------------------------------------
  free energy    TOTEN  =       -13.66744446 eV

  energy without entropy =      -13.66744446  energy(sigma->0) =      -13.66744446


--------------------------------------------------------------------------------------------------------




--------------------------------------- Iteration      1(   4)  ---------------------------------------


    POTLOK:  cpu time      0.0912: real time      0.1230
    SETDIJ:  cpu time      0.0102: real time      0.0105
     EDDAV:  cpu time      4.4444: real time      4.7818
       DOS:  cpu time      0.0002: real time      0.0002
    CHARGE:  cpu time      0.1629: real time      0.1712
    MIXING:  cpu time      0.0059: real time      0.0050
    --------------------------------------------
      LOOP:  cpu time      4.7147: real time      5.0916

 eigenvalue-minimisations  :   576
 total energy-change (2. order) :-0.2246452E-09  (-0.4445711E-12)
 number of electron      35.9999977 magnetization 
 augmentation part       14.4456182 magnetization 

 Broyden mixing:
  rms(total) = 0.64775E-06    rms(broyden)= 0.64774E-06
  rms(prec ) = 0.71557E-06
  weight for this iteration     100.00

 eigenvalues of (default mixing * dielectric matrix)
  average eigenvalue GAMMA=   1.5283
  2.7555  1.1474  0.6819

 Free energy of the ion-electron system (eV)
  ---------------------------------------------------
  alpha Z        PSCENC =       144.51722449
  Ewald energy   TEWEN  =     -2510.86064844
  -Hartree energ DENC   =     -1366.99524578
  -exchange      EXHF   =         0.00000000
  -V(xc)+E(xc)   XCENC  =       139.17796434
  PAW double counting   =      4363.52876528    -4713.84806271
  entropy T*S    EENTRO =        -0.00000000
  eigenvalues    EBANDS =      -120.49346190
  atomic energy  EATOM  =      4051.30602026
  Solvation  Ediel_sol  =         0.00000000
  ---------------------------------------------------
  free energy    TOTEN  =       -13.66744446 eV

  energy without entropy =      -13.66744446  energy(sigma->0) =      -13.66744446


--------------------------------------------------------------------------------------------------------




--------------------------------------- Iteration      1(   5)  ---------------------------------------


    POTLOK:  cpu time      0.0933: real time      0.0838
    SETDIJ:  cpu time      0.0043: real time      0.0042
     EDDAV:  cpu time      4.1580: real time      4.4587
       DOS:  cpu time      0.0001: real time      0.0001
    CHARGE:  cpu time      0.1662: real time      0.1827
    MIXING:  cpu time      0.0180: real time      0.0181
    --------------------------------------------
      LOOP:  cpu time      4.4399: real time      4.7476

 eigenvalue-minimisations  :   576
 total energy-change (2. order) : 0.7366907E-10  ( 0.7036231E-14)
 number of electron      35.9999977 magnetization 
 augmentation part       14.4456184 magnetization 

 Broyden mixing:
  rms(total) = 0.12675E-06    rms(broyden)= 0.12674E-06
  rms(prec ) = 0.13497E-06
  weight for this iteration     100.00

 eigenvalues of (default mixing * dielectric matrix)
  average eigenvalue GAMMA=   1.2568
  2.6705  1.1895  0.6957  0.4714

 Free energy of the ion-electron system (eV)
  ---------------------------------------------------
  alpha Z        PSCENC =       144.51722449
  Ewald energy   TEWEN  =     -2510.86064844
  -Hartree energ DENC   =     -1366.99523325
  -exchange      EXHF   =         0.00000000
  -V(xc)+E(xc)   XCENC  =       139.17796372
  PAW double counting   =      4363.52875259    -4713.84804346
  entropy T*S    EENTRO =        -0.00000000
  eigenvalues    EBANDS =      -120.49348037
  atomic energy  EATOM  =      4051.30602026
  Solvation  Ediel_sol  =         0.00000000
  ---------------------------------------------------
  free energy    TOTEN  =       -13.66744446 eV

  energy without entropy =      -13.66744446  energy(sigma->0) =      -13.66744446


--------------------------------------------------------------------------------------------------------




--------------------------------------- Iteration      1(   6)  ---------------------------------------


    POTLOK:  cpu time      0.0726: real time      0.0972
    SETDIJ:  cpu time      0.0025: real time      0.0043
     EDDAV:  cpu time      4.2688: real time      4.5677
       DOS:  cpu time      0.0001: real time      0.0001
    CHARGE:  cpu time      0.2018: real time      0.1721
    MIXING:  cpu time      0.0143: real time      0.0143
    --------------------------------------------
      LOOP:  cpu time      4.5601: real time      4.8558

 eigenvalue-minimisations  :   576
 total energy-change (2. order) : 0.8458301E-10  ( 0.6884134E-13)
 number of electron      35.9999977 magnetization 
 augmentation part       14.4456183 magnetization 

 Broyden mixing:
  rms(total) = 0.20352E-06    rms(broyden)= 0.20352E-06
  rms(prec ) = 0.21838E-06
  weight for this iteration     100.00

 eigenvalues of (default mixing * dielectric matrix)
  average eigenvalue GAMMA=   1.0663
  2.6056  1.1992  0.7063  0.4103  0.4103

 Free energy of the ion-electron system (eV)
  ---------------------------------------------------
  alpha Z        PSCENC =       144.51722449
  Ewald energy   TEWEN  =     -2510.86064844
  -Hartree energ DENC   =     -1366.99523351
  -exchange      EXHF   =         0.00000000
  -V(xc)+E(xc)   XCENC  =       139.17796374
  PAW double counting   =      4363.52874604    -4713.84803702
  entropy T*S    EENTRO =        -0.00000000
  eigenvalues    EBANDS =      -120.49348002
  atomic energy  EATOM  =      4051.30602026
  Solvation  Ediel_sol  =         0.00000000
  ---------------------------------------------------
  free energy    TOTEN  =       -13.66744446 eV

  energy without entropy =      -13.66744446  energy(sigma->0) =      -13.66744446


--------------------------------------------------------------------------------------------------------




--------------------------------------- Iteration      1(   7)  ---------------------------------------


    POTLOK:  cpu time      0.1037: real time      0.1084
    SETDIJ:  cpu time      0.0048: real time      0.0145
     EDDAV:  cpu time      4.3520: real time      4.7068
       DOS:  cpu time      0.0172: real time      0.0187
    CHARGE:  cpu time      0.2213: real time      0.2246
    MIXING:  cpu time      0.0267: real time      0.0380
    --------------------------------------------
      LOOP:  cpu time      4.7257: real time      5.1110

 eigenvalue-minimisations  :   576
 total energy-change (2. order) :-0.9276846E-10  ( 0.1512838E-12)
 number of electron      35.9999977 magnetization 
 augmentation part       14.4456184 magnetization 

 Broyden mixing:
  rms(total) = 0.17002E-06    rms(broyden)= 0.17002E-06
  rms(prec ) = 0.18106E-06
  weight for this iteration     100.00

 eigenvalues of (default mixing * dielectric matrix)
  average eigenvalue GAMMA=   1.0150
  2.5761  1.2078  0.7083  0.6955  0.6955  0.2070

 Free energy of the ion-electron system (eV)
  ---------------------------------------------------
  alpha Z        PSCENC =       144.51722449
  Ewald energy   TEWEN  =     -2510.86064844
  -Hartree energ DENC   =     -1366.99523359
  -exchange      EXHF   =         0.00000000
  -V(xc)+E(xc)   XCENC  =       139.17796374
  PAW double counting   =      4363.52874695    -4713.84803805
  entropy T*S    EENTRO =        -0.00000000
  eigenvalues    EBANDS =      -120.49347982
  atomic energy  EATOM  =      4051.30602026
  Solvation  Ediel_sol  =         0.00000000
  ---------------------------------------------------
  free energy    TOTEN  =       -13.66744446 eV

  energy without entropy =      -13.66744446  energy(sigma->0) =      -13.66744446


--------------------------------------------------------------------------------------------------------




--------------------------------------- Iteration      1(   8)  ---------------------------------------


    POTLOK:  cpu time      0.0872: real time      0.0952
    SETDIJ:  cpu time      0.0031: real time      0.0027
     EDDAV:  cpu time      3.9455: real time      4.1717
       DOS:  cpu time      0.0107: real time      0.0107
    --------------------------------------------
      LOOP:  cpu time      4.0464: real time      4.2804

 eigenvalue-minimisations  :   576
 total energy-change (2. order) : 0.3865352E-10  ( 0.1670244E-12)
 number of electron      35.9999977 magnetization 
 augmentation part       14.4456184 magnetization 

 Free energy of the ion-electron system (eV)
  ---------------------------------------------------
  alpha Z        PSCENC =       144.51722449
  Ewald energy   TEWEN  =     -2510.86064844
  -Hartree energ DENC   =     -1366.99523381
  -exchange      EXHF   =         0.00000000
  -V(xc)+E(xc)   XCENC  =       139.17796375
  PAW double counting   =      4363.52874754    -4713.84803880
  entropy T*S    EENTRO =        -0.00000000
  eigenvalues    EBANDS =      -120.49347946
  atomic energy  EATOM  =      4051.30602026
  Solvation  Ediel_sol  =         0.00000000
  ---------------------------------------------------
  free energy    TOTEN  =       -13.66744446 eV

  energy without entropy =      -13.66744446  energy(sigma->0) =      -13.66744446


--------------------------------------------------------------------------------------------------------




 average (electrostatic) potential at core
  the test charge radii are     0.9521  0.9698
  (the norm of the test charge is              1.0000)
       1 -36.1973       2 -36.1973       3 -88.5090       4 -88.5090



 E-fermi :   2.3578     XC(G=0):  -9.6631     alpha+bet : -8.1250

 val. band max:        2.2058409988   @ k =   0.0000   0.0000   0.0000
 cond. band min:       4.4286648727   @ k =   0.0000   0.0000   0.0000
 fundamental gap:      2.2228238739
 Fermi energy:         2.3578146048

 k-point     1 :       0.0000    0.0000    0.0000
  band No.  band energies     occupation 
      1     -11.0195      2.00000
      2     -10.0714      2.00000
      3      -4.1739      2.00000
      4      -4.1593      2.00000
      5      -4.1593      2.00000
      6      -4.0759      2.00000
      7      -4.0759      2.00000
      8      -3.7116      2.00000
      9      -3.7116      2.00000
     10      -3.6325      2.00000
     11      -3.6325      2.00000
     12      -3.4767      2.00000
     13      -3.1649      2.00000
     14       1.3033      2.00000
     15       1.3033      2.00000
     16       2.1273      2.00000
     17       2.2058      2.00000
     18       2.2058      2.00000
     19       4.4287      0.00000
     20       5.3100      0.00000
     21       8.5093      0.00000
     22       8.5093      0.00000
     23       8.7822      0.00000
     24       9.8990      0.00000

 k-point     2 :       0.1667    0.0000    0.0000
  band No.  band energies     occupation 
      1     -10.8351      2.00000
      2      -9.9716      2.00000
      3      -4.1738      2.00000
      4      -4.1362      2.00000
      5      -4.1247      2.00000
      6      -4.0523      2.00000
      7      -4.0236      2.00000
      8      -3.7356      2.00000
      9      -3.7106      2.00000
     10      -3.7072      2.00000
     11      -3.6245      2.00000
     12      -3.4197      2.00000
     13      -2.9028      2.00000
     14       0.0798      2.00000
     15       0.8885      2.00000
     16       0.9054      2.00000
     17       1.8785      2.00000
     18       1.9792      2.00000
     19       5.5636      0.00000
     20       6.2579      0.00000
     21       7.9997      0.00000
     22       8.9702      0.00000
     23       9.0166      0.00000
     24       9.8171      0.00000

 k-point     3 :       0.3333    0.0000    0.0000
  band No.  band energies     occupation 
      1     -10.3922      2.00000
      2      -9.7934      2.00000
      3      -4.1654      2.00000
      4      -4.0759      2.00000
      5      -4.0715      2.00000
      6      -3.9260      2.00000
      7      -3.9123      2.00000
      8      -3.7960      2.00000
      9      -3.7159      2.00000
     10      -3.6792      2.00000
     11      -3.6076      2.00000
     12      -3.3341      2.00000
     13      -2.5168      2.00000
     14      -1.3830      2.00000
     15      -0.7938      2.00000
     16       0.2456      2.00000
     17       1.1379      2.00000
     18       1.5300      2.00000
     19       6.0810      0.00000
     20       6.4094      0.00000
     21       7.8033      0.00000
     22       8.9577      0.00000
     23       9.2174      0.00000
     24      10.7125      0.00000

 k-point     4 :       0.5000    0.0000    0.0000
  band No.  band energies     occupation 
      1     -10.0857      2.00000
      2      -9.7572      2.00000
      3      -4.1515      2.00000
      4      -4.0550      2.00000
      5      -3.9362      2.00000
      6      -3.9120      2.00000
      7      -3.8561      2.00000
      8      -3.7903      2.00000
      9      -3.6445      2.00000
     10      -3.5956      2.00000
     11      -3.5223      2.00000
     12      -3.5003      2.00000
     13      -2.6361      2.00000
     14      -1.9290      2.00000
     15      -1.0878      2.00000
     16      -0.0488      2.00000
     17       0.5075      2.00000
     18       1.3155      2.00000
     19       5.8632      0.00000
     20       6.4688      0.00000
     21       7.3212      0.00000
     22       9.1122      0.00000
     23       9.6299      0.00000
     24      10.5826      0.00000

 k-point     5 :       0.1667    0.1667    0.0000
  band No.  band energies     occupation 
      1     -10.5178      2.00000
      2      -9.8320      2.00000
      3      -4.1327      2.00000
      4      -4.1127      2.00000
      5      -4.0800      2.00000
      6      -4.0007      2.00000
      7      -3.9304      2.00000
      8      -3.7553      2.00000
      9      -3.7303      2.00000
     10      -3.7098      2.00000
     11      -3.6117      2.00000
     12      -3.3625      2.00000
     13      -2.5473      2.00000
     14      -0.8512      2.00000
     15      -0.5128      2.00000
     16       0.1922      2.00000
     17       1.3497      2.00000
     18       1.4131      2.00000
     19       6.6067      0.00000
     20       7.2163      0.00000
     21       7.8588      0.00000
     22       8.0576      0.00000
     23       9.4389      0.00000
     24       9.7841      0.00000

 k-point     6 :       0.3333    0.1667    0.0000
  band No.  band energies     occupation 
      1     -10.1001      2.00000
      2      -9.7499      2.00000
      3      -4.1319      2.00000
      4      -4.0419      2.00000
      5      -3.9432      2.00000
      6      -3.8840      2.00000
      7      -3.8299      2.00000
      8      -3.7924      2.00000
      9      -3.7098      2.00000
     10      -3.6807      2.00000
     11      -3.5731      2.00000
     12      -3.3003      2.00000
     13      -2.5444      2.00000
     14      -1.6741      2.00000
     15      -1.0516      2.00000
     16      -0.6048      2.00000
     17       0.5992      2.00000
     18       0.7531      2.00000
     19       6.9380      0.00000
     20       7.1673      0.00000
     21       7.3256      0.00000
     22       9.2441      0.00000
     23       9.3289      0.00000
     24      10.7520      0.00000

 k-point     7 :       0.3333    0.3333    0.0000
  band No.  band energies     occupation 
      1      -9.8394      2.00000
      2      -9.8394      2.00000
      3      -4.1424      2.00000
      4      -3.9449      2.00000
      5      -3.9449      2.00000
      6      -3.8246      2.00000
      7      -3.7516      2.00000
      8      -3.7516      2.00000
      9      -3.6996      2.00000
     10      -3.6800      2.00000
     11      -3.4382      2.00000
     12      -3.4382      2.00000
     13      -2.1217      2.00000
     14      -2.1217      2.00000
     15      -1.6657      2.00000
     16      -0.1322      2.00000
     17      -0.1322      2.00000
     18       0.1085      2.00000
     19       6.4643      0.00000
     20       8.1253      0.00000
     21       8.1253      0.00000
     22      10.0739      0.00000
     23      10.2343      0.00000
     24      10.2343      0.00000

 k-point     8 :       0.0000    0.0000    0.2500
  band No.  band energies     occupation 
      1     -10.8996      2.00000
      2     -10.2333      2.00000
      3      -4.1810      2.00000
      4      -4.1509      2.00000
      5      -4.1509      2.00000
      6      -4.0922      2.00000
      7      -4.0922      2.00000
      8      -3.9392      2.00000
      9      -3.6971      2.00000
     10      -3.6971      2.00000
     11      -3.6410      2.00000
     12      -3.6410      2.00000
     13      -2.1969      2.00000
     14       1.0264      2.00000
     15       1.4255      2.00000
     16       1.4255      2.00000
     17       2.0623      2.00000
     18       2.0623      2.00000
     19       5.3257      0.00000
     20       5.4640      0.00000
     21       8.4747      0.00000
     22       8.6056      0.00000
     23       8.6056      0.00000
     24       9.5486      0.00000

 k-point     9 :       0.1667    0.0000    0.2500
  band No.  band energies     occupation 
      1     -10.7234      2.00000
      2     -10.1153      2.00000
      3      -4.1880      2.00000
      4      -4.1282      2.00000
      5      -4.1132      2.00000
      6      -4.0733      2.00000
      7      -4.0419      2.00000
      8      -3.9212      2.00000
      9      -3.7102      2.00000
     10      -3.6964      2.00000
     11      -3.6355      2.00000
     12      -3.6064      2.00000
     13      -2.0752      2.00000
     14       0.2157      2.00000
     15       0.4163      2.00000
     16       1.0467      2.00000
     17       1.5598      2.00000
     18       1.8018      2.00000
     19       6.0086      0.00000
     20       6.4361      0.00000
     21       8.0139      0.00000
     22       8.5532      0.00000
     23       9.1512      0.00000
     24       9.2143      0.00000

 k-point    10 :       0.3333    0.0000    0.2500
  band No.  band energies     occupation 
      1     -10.3081      2.00000
      2      -9.8842      2.00000
      3      -4.1819      2.00000
      4      -4.1008      2.00000
      5      -4.0500      2.00000
      6      -3.9388      2.00000
      7      -3.9371      2.00000
      8      -3.8794      2.00000
      9      -3.6957      2.00000
     10      -3.6708      2.00000
     11      -3.6211      2.00000
     12      -3.4961      2.00000
     13      -2.2708      2.00000
     14      -1.3144      2.00000
     15      -0.6426      2.00000
     16       0.4125      2.00000
     17       1.1601      2.00000
     18       1.3125      2.00000
     19       5.7879      0.00000
     20       6.4350      0.00000
     21       7.9267      0.00000
     22       8.4230      0.00000
     23       9.6627      0.00000
     24      10.3845      0.00000

 k-point    11 :       0.5000    0.0000    0.2500
  band No.  band energies     occupation 
      1     -10.0334      2.00000
      2      -9.8000      2.00000
      3      -4.1696      2.00000
      4      -4.0492      2.00000
      5      -4.0273      2.00000
      6      -3.8952      2.00000
      7      -3.8853      2.00000
      8      -3.7883      2.00000
      9      -3.6412      2.00000
     10      -3.6091      2.00000
     11      -3.4888      2.00000
     12      -3.4702      2.00000
     13      -2.7987      2.00000
     14      -2.2423      2.00000
     15      -0.4440      2.00000
     16       0.1293      2.00000
     17       0.7863      2.00000
     18       1.0841      2.00000
     19       5.6832      0.00000
     20       5.9969      0.00000
     21       7.9179      0.00000
     22       8.1709      0.00000
     23       9.6415      0.00000
     24      10.3038      0.00000

 k-point    12 :       0.1667    0.1667    0.2500
  band No.  band energies     occupation 
      1     -10.4243      2.00000
      2      -9.9396      2.00000
      3      -4.1565      2.00000
      4      -4.1066      2.00000
      5      -4.0678      2.00000
      6      -4.0160      2.00000
      7      -3.9541      2.00000
      8      -3.8931      2.00000
      9      -3.7209      2.00000
     10      -3.6810      2.00000
     11      -3.6229      2.00000
     12      -3.5317      2.00000
     13      -2.0604      2.00000
     14      -0.7844      2.00000
     15      -0.4592      2.00000
     16       0.2388      2.00000
     17       1.1212      2.00000
     18       1.3522      2.00000
     19       6.4384      0.00000
     20       7.2386      0.00000
     21       8.0791      0.00000
     22       8.1745      0.00000
     23       9.1138      0.00000
     24       9.5572      0.00000

 k-point    13 :       0.3333    0.1667    0.2500
  band No.  band energies     occupation 
      1     -10.0451      2.00000
      2      -9.7965      2.00000
      3      -4.1247      2.00000
      4      -4.0547      2.00000
      5      -3.9912      2.00000
      6      -3.8997      2.00000
      7      -3.8664      2.00000
      8      -3.8384      2.00000
      9      -3.6851      2.00000
     10      -3.6641      2.00000
     11      -3.5601      2.00000
     12      -3.3577      2.00000
     13      -2.5965      2.00000
     14      -1.9443      2.00000
     15      -0.7024      2.00000
     16      -0.1853      2.00000
     17       0.4553      2.00000
     18       0.9047      2.00000
     19       6.3997      0.00000
     20       7.1776      0.00000
     21       7.8561      0.00000
     22       8.3765      0.00000
     23       9.1699      0.00000
     24      10.5750      0.00000

 k-point    14 :       0.3333    0.3333    0.2500
  band No.  band energies     occupation 
      1      -9.8314      2.00000
      2      -9.8314      2.00000
      3      -4.1038      2.00000
      4      -3.9897      2.00000
      5      -3.9897      2.00000
      6      -3.8730      2.00000
      7      -3.7716      2.00000
      8      -3.7716      2.00000
      9      -3.7033      2.00000
     10      -3.7021      2.00000
     11      -3.3861      2.00000
     12      -3.3861      2.00000
     13      -2.3706      2.00000
     14      -2.3706      2.00000
     15      -1.4329      2.00000
     16      -0.2071      2.00000
     17       0.3657      2.00000
     18       0.3657      2.00000
     19       7.0872      0.00000
     20       7.4222      0.00000
     21       7.4222      0.00000
     22       9.7117      0.00000
     23       9.7117      0.00000
     24       9.8074      0.00000

 k-point    15 :       0.0000    0.0000    0.5000
  band No.  band energies     occupation 
      1     -10.5870      2.00000
      2     -10.5870      2.00000
      3      -4.1508      2.00000
      4      -4.1508      2.00000
      5      -4.1255      2.00000
      6      -4.1255      2.00000
      7      -4.1255      2.00000
      8      -4.1255      2.00000
      9      -3.6660      2.00000
     10      -3.6660      2.00000
     11      -3.6660      2.00000
     12      -3.6660      2.00000
     13      -0.6721      2.00000
     14      -0.6721      2.00000
     15       1.7334      2.00000
     16       1.7334      2.00000
     17       1.7334      2.00000
     18       1.7334      2.00000
     19       5.7743      0.00000
     20       5.7743      0.00000
     21       8.9674      0.00000
     22       8.9674      0.00000
     23       8.9674      0.00000
     24       8.9674      0.00000

 k-point    16 :       0.1667    0.0000    0.5000
  band No.  band energies     occupation 
      1     -10.4351      2.00000
      2     -10.4351      2.00000
      3      -4.1722      2.00000
      4      -4.1722      2.00000
      5      -4.0808      2.00000
      6      -4.0808      2.00000
      7      -4.0749      2.00000
      8      -4.0749      2.00000
      9      -3.6644      2.00000
     10      -3.6644      2.00000
     11      -3.6628      2.00000
     12      -3.6628      2.00000
     13      -0.7969      2.00000
     14      -0.7969      2.00000
     15       0.8416      2.00000
     16       0.8416      2.00000
     17       1.4067      2.00000
     18       1.4067      2.00000
     19       6.6246      0.00000
     20       6.6246      0.00000
     21       7.9587      0.00000
     22       7.9587      0.00000
     23       9.5718      0.00000
     24       9.5718      0.00000

 k-point    17 :       0.3333    0.0000    0.5000
  band No.  band energies     occupation 
      1     -10.0997      2.00000
      2     -10.0997      2.00000
      3      -4.1732      2.00000
      4      -4.1732      2.00000
      5      -3.9952      2.00000
      6      -3.9952      2.00000
      7      -3.9514      2.00000
      8      -3.9514      2.00000
      9      -3.6483      2.00000
     10      -3.6483      2.00000
     11      -3.6211      2.00000
     12      -3.6211      2.00000
     13      -1.8282      2.00000
     14      -1.8282      2.00000
     15       0.4605      2.00000
     16       0.4605      2.00000
     17       0.8383      2.00000
     18       0.8383      2.00000
     19       6.1144      0.00000
     20       6.1144      0.00000
     21       7.8109      0.00000
     22       7.8109      0.00000
     23      10.7030      0.00000
     24      10.7106      0.00000

 k-point    18 :       0.5000    0.0000    0.5000
  band No.  band energies     occupation 
      1      -9.9120      2.00000
      2      -9.9120      2.00000
      3      -4.1634      2.00000
      4      -4.1634      2.00000
      5      -3.9575      2.00000
      6      -3.9575      2.00000
      7      -3.8440      2.00000
      8      -3.8440      2.00000
      9      -3.6297      2.00000
     10      -3.6297      2.00000
     11      -3.4605      2.00000
     12      -3.4605      2.00000
     13      -2.6810      2.00000
     14      -2.6810      2.00000
     15       0.5645      2.00000
     16       0.5645      2.00000
     17       0.5814      2.00000
     18       0.5814      2.00000
     19       5.7545      0.00000
     20       5.7545      0.00000
     21       7.4296      0.00000
     22       7.4296      0.00000
     23      11.0265      0.00000
     24      11.0265      0.00000

 k-point    19 :       0.1667    0.1667    0.5000
  band No.  band energies     occupation 
      1     -10.1890      2.00000
      2     -10.1890      2.00000
      3      -4.1513      2.00000
      4      -4.1513      2.00000
      5      -4.0374      2.00000
      6      -4.0374      2.00000
      7      -3.9970      2.00000
      8      -3.9970      2.00000
      9      -3.6643      2.00000
     10      -3.6643      2.00000
     11      -3.6291      2.00000
     12      -3.6291      2.00000
     13      -1.3955      2.00000
     14      -1.3955      2.00000
     15       0.4840      2.00000
     16       0.4840      2.00000
     17       0.7048      2.00000
     18       0.7048      2.00000
     19       6.9117      0.00000
     20       6.9117      0.00000
     21       8.0500      0.00000
     22       8.0500      0.00000
     23       9.2726      0.00000
     24       9.2726      0.00000

 k-point    20 :       0.3333    0.1667    0.5000
  band No.  band energies     occupation 
      1      -9.9167      2.00000
      2      -9.9167      2.00000
      3      -4.1115      2.00000
      4      -4.1115      2.00000
      5      -3.9695      2.00000
      6      -3.9695      2.00000
      7      -3.8783      2.00000
      8      -3.8783      2.00000
      9      -3.6616      2.00000
     10      -3.6616      2.00000
     11      -3.4836      2.00000
     12      -3.4836      2.00000
     13      -2.3813      2.00000
     14      -2.3813      2.00000
     15      -0.1447      2.00000
     16      -0.1447      2.00000
     17       0.7341      2.00000
     18       0.7341      2.00000
     19       6.4522      0.00000
     20       6.4522      0.00000
     21       8.1260      0.00000
     22       8.1260      0.00000
     23       9.7230      0.00000
     24       9.7230      0.00000

 k-point    21 :       0.3333    0.3333    0.5000
  band No.  band energies     occupation 
      1      -9.8233      2.00000
      2      -9.8233      2.00000
      3      -4.0375      2.00000
      4      -4.0375      2.00000
      5      -3.9977      2.00000
      6      -3.9977      2.00000
      7      -3.7844      2.00000
      8      -3.7844      2.00000
      9      -3.7098      2.00000
     10      -3.7098      2.00000
     11      -3.3335      2.00000
     12      -3.3335      2.00000
     13      -2.5630      2.00000
     14      -2.5630      2.00000
     15      -0.8580      2.00000
     16      -0.8580      2.00000
     17       0.8455      2.00000
     18       0.8455      2.00000
     19       6.7113      0.00000
     20       6.7113      0.00000
     21       8.5533      0.00000
     22       8.5533      0.00000
     23       9.5925      0.00000
     24       9.5925      0.00000


--------------------------------------------------------------------------------------------------------


 soft charge-density along one line, spin component           1
         0         1         2         3         4         5         6         7         8         9
 total charge-density along one line

 pseudopotential strength for first ion, spin component:           1
 -9.723   0.000   0.000   0.000  -0.000 -10.091   0.000   0.000
  0.000  -9.723   0.000  -0.000   0.000   0.000 -10.091   0.000
  0.000   0.000  -9.722  -0.000   0.000   0.000   0.000 -10.091
  0.000  -0.000  -0.000  -9.723  -0.000   0.000  -0.000  -0.000
 -0.000   0.000   0.000  -0.000  -9.723  -0.000   0.000   0.000
-10.091   0.000   0.000   0.000  -0.000 -10.385   0.000   0.000
  0.000 -10.091   0.000  -0.000   0.000   0.000 -10.384   0.000
  0.000   0.000 -10.091  -0.000   0.000   0.000   0.000 -10.384
  0.000  -0.000  -0.000 -10.091  -0.000   0.000  -0.000  -0.000
 -0.000   0.000   0.000  -0.000 -10.091  -0.000   0.000   0.000
 -0.000   0.000  -0.000  -0.000  -0.000  -0.000   0.000  -0.000
 -0.000   0.000  -0.000  -0.000  -0.000  -0.000   0.000  -0.000
 -0.000   0.002  -0.000   0.000  -0.002  -0.000   0.002  -0.000
  0.000  -0.000  -0.002   0.000   0.000   0.000  -0.000  -0.002
 -0.002   0.000   0.000   0.002  -0.000  -0.002   0.000   0.000
 -0.000   0.002  -0.000   0.000  -0.002  -0.000   0.002  -0.000
  0.000  -0.000  -0.003   0.000   0.000   0.000  -0.000  -0.002
 -0.002   0.000   0.000   0.002   0.000  -0.002   0.000   0.000
 total augmentation occupancy for first ion, spin component:           1
  3.598  -0.000   0.000  -0.705  -0.000  -1.592   0.000  -0.000   0.701   0.000   0.000   0.000  -0.000  -0.000  -0.571   0.000
 -0.000   3.102   0.000  -0.000  -0.705   0.000  -1.099  -0.000   0.000   0.701   0.000   0.000   0.407  -0.000  -0.000  -0.060
  0.000  -0.000   4.092   0.000  -0.000  -0.000  -0.000  -2.081   0.000   0.000   0.004   0.000   0.000  -0.696  -0.000  -0.000
 -0.705  -0.000  -0.000   3.102   0.000   0.701   0.000   0.000  -1.099  -0.000   0.000   0.000  -0.000  -0.000   0.407   0.000
 -0.000  -0.705  -0.000   0.000   3.598   0.000   0.701   0.000  -0.000  -1.592   0.000   0.000  -0.571   0.000   0.000   0.085
 -1.592   0.000  -0.000   0.701   0.000   1.579  -0.000   0.000  -0.698  -0.000   0.000   0.000   0.000   0.000   0.554  -0.000
  0.000  -1.099  -0.000   0.000   0.701  -0.000   1.089   0.000  -0.000  -0.698  -0.000  -0.000  -0.395   0.000   0.000   0.068
 -0.000  -0.000  -2.081   0.000   0.000   0.000   0.000   2.062  -0.000  -0.000  -0.005  -0.000  -0.000   0.675   0.000   0.000
  0.701   0.000   0.000  -1.099  -0.000  -0.698  -0.000  -0.000   1.089   0.000   0.000  -0.000   0.000  -0.000  -0.395  -0.000
  0.000   0.701   0.000  -0.000  -1.592  -0.000  -0.698  -0.000   0.000   1.579   0.000   0.000   0.554  -0.000  -0.000  -0.095
 -0.000   0.000   0.004   0.000   0.000   0.000   0.000  -0.005   0.000   0.000   2.515  -0.590  -0.000  -0.002   0.000  -0.000
  0.000   0.000   0.000   0.000   0.000   0.000  -0.000  -0.000   0.000   0.000  -0.590   0.164  -0.000   0.001   0.000   0.000
 -0.000   0.407   0.000  -0.000  -0.571   0.000  -0.395  -0.000   0.000   0.554   0.000   0.000   0.367   0.000  -0.000  -0.063
 -0.000  -0.000  -0.696   0.000   0.000   0.000   0.000   0.675  -0.000  -0.000  -0.002   0.001   0.000   0.367   0.000   0.000
 -0.571  -0.000  -0.000   0.407   0.000   0.554   0.000   0.000  -0.395  -0.000   0.000   0.000  -0.000   0.000   0.367   0.000
  0.000  -0.060  -0.000   0.000   0.085  -0.000   0.068   0.000  -0.000  -0.095  -0.000  -0.000  -0.063   0.000   0.000   0.013
  0.000  -0.000   0.103  -0.000  -0.000  -0.000   0.000  -0.116   0.000   0.000   0.001  -0.000  -0.000  -0.063   0.000   0.000
  0.085   0.000   0.000  -0.060  -0.000  -0.095  -0.000  -0.000   0.068   0.000   0.000   0.000   0.000   0.000  -0.063   0.000


------------------------ aborting loop because EDIFF is reached ----------------------------------------


    CHARGE:  cpu time      0.3139: real time      0.3435
    FORLOC:  cpu time      0.0106: real time      0.0110
    FORNL :  cpu time      0.0820: real time      0.0990
    STRESS:  cpu time      0.3877: real time      0.4394
    FORCOR:  cpu time      0.0773: real time      0.0808
    FORHAR:  cpu time      0.0286: real time      0.0289
[...]
    HAMIL1:  cpu time      0.5514: real time      0.5400
    LRDIAG:  cpu time      0.5829: real time      0.6194
    LRDIIS:  cpu time      2.3176: real time      2.6061
    LRDIAG:  cpu time      0.9625: real time      0.9352
    MIXING:  cpu time      0.0042: real time      0.0042
    --------------------------------------------
      LOOP:  cpu time      4.8397: real time      5.1784

 Broyden mixing:
  rms(total) = 0.43466E-02    rms(broyden)= 0.43466E-02
  rms(prec ) = 0.65223E-02
  weight for this iteration     100.00

 eigenvalues of (default mixing * dielectric matrix)
  average eigenvalue GAMMA=   1.8262
  2.7237  1.0307  1.6144  1.9360

 Free energy of the ion-electron system (eV)
  ---------------------------------------------------
  -Hartree energ DENC   =        -0.12926262
  -V(xc)+E(xc)   XCENC  =         0.00260485
  PAW double counting   =         0.79872691       -0.80124089
  entropy T*S    EENTRO =         0.00000000
  eigenvalues    EBANDS =        -1.02572661
  ---------------------------------------------------
  free energy    TOTEN  =        -1.15489836 eV

  energy without entropy =       -1.15489836


----------------------------------------- Iteration    3(   7)  ---------------------------------------


   POT+DIJ:  cpu time      0.2343: real time      0.2325
    HAMIL1:  cpu time      0.5059: real time      0.5546
    LRDIAG:  cpu time      0.8232: real time      0.9134
    LRDIIS:  cpu time      2.3587: real time      2.7115
    LRDIAG:  cpu time      0.8535: real time      0.8113
    MIXING:  cpu time      0.0045: real time      0.0055
    --------------------------------------------
      LOOP:  cpu time      5.0207: real time      5.4655

 Broyden mixing:
  rms(total) = 0.63896E-03    rms(broyden)= 0.63895E-03
  rms(prec ) = 0.86239E-03
  weight for this iteration     100.00

 eigenvalues of (default mixing * dielectric matrix)
  average eigenvalue GAMMA=   1.8070
  2.9805  2.3715  1.3769  1.3769  0.9291

 Free energy of the ion-electron system (eV)
  ---------------------------------------------------
  -Hartree energ DENC   =        -0.12896913
  -V(xc)+E(xc)   XCENC  =         0.00265959
  PAW double counting   =         0.77087849       -0.77335689
  entropy T*S    EENTRO =         0.00000000
  eigenvalues    EBANDS =        -1.02829480
  ---------------------------------------------------
  free energy    TOTEN  =        -1.15708274 eV

  energy without entropy =       -1.15708274


----------------------------------------- Iteration    3(   8)  ---------------------------------------


   POT+DIJ:  cpu time      0.2093: real time      0.2127
    HAMIL1:  cpu time      0.5569: real time      0.5845
    LRDIAG:  cpu time      0.9889: real time      0.9613
    LRDIIS:  cpu time      2.9034: real time      3.1758
    LRDIAG:  cpu time      0.8878: real time      0.8241
    MIXING:  cpu time      0.0058: real time      0.0055
    --------------------------------------------
      LOOP:  cpu time      5.7575: real time      5.9682

 Broyden mixing:
  rms(total) = 0.35173E-03    rms(broyden)= 0.35172E-03
  rms(prec ) = 0.58092E-03
  weight for this iteration     100.00

 eigenvalues of (default mixing * dielectric matrix)
  average eigenvalue GAMMA=   1.6859
  2.9349  2.4653  1.4665  1.4665  0.8911  0.8911

 Free energy of the ion-electron system (eV)
  ---------------------------------------------------
  -Hartree energ DENC   =        -0.12883779
  -V(xc)+E(xc)   XCENC  =         0.00266756
  PAW double counting   =         0.76355249       -0.76601978
  entropy T*S    EENTRO =         0.00000000
  eigenvalues    EBANDS =        -1.02881672
  ---------------------------------------------------
  free energy    TOTEN  =        -1.15745425 eV

  energy without entropy =       -1.15745425


----------------------------------------- Iteration    3(   9)  ---------------------------------------


   POT+DIJ:  cpu time      0.1620: real time      0.1566
    HAMIL1:  cpu time      0.5017: real time      0.5771
    LRDIAG:  cpu time      0.8052: real time      0.8534
    LRDIIS:  cpu time      2.9758: real time      3.1991
    LRDIAG:  cpu time      0.7537: real time      0.6780
    MIXING:  cpu time      0.0096: real time      0.0099
    --------------------------------------------
      LOOP:  cpu time      5.4341: real time      5.6905

 Broyden mixing:
  rms(total) = 0.11955E-03    rms(broyden)= 0.11955E-03
  rms(prec ) = 0.15110E-03
  weight for this iteration     100.00

 eigenvalues of (default mixing * dielectric matrix)
  average eigenvalue GAMMA=   1.7804
  3.0786  2.6809  2.2418  1.5256  1.0335  1.0335  0.8691

 Free energy of the ion-electron system (eV)
  ---------------------------------------------------
  -Hartree energ DENC   =        -0.12892073
  -V(xc)+E(xc)   XCENC  =         0.00266655
  PAW double counting   =         0.76389394       -0.76636313
  entropy T*S    EENTRO =         0.00000000
  eigenvalues    EBANDS =        -1.02870001
  ---------------------------------------------------
  free energy    TOTEN  =        -1.15742337 eV

  energy without entropy =       -1.15742337


----------------------------------------- Iteration    3(  10)  ---------------------------------------


   POT+DIJ:  cpu time      0.1947: real time      0.1792
    HAMIL1:  cpu time      0.5180: real time      0.5618
    LRDIAG:  cpu time      0.8314: real time      0.8853
    LRDIIS:  cpu time      2.8161: real time      2.9292
    LRDIAG:  cpu time      0.9735: real time      0.8770
    MIXING:  cpu time      0.0063: real time      0.0063
    --------------------------------------------
      LOOP:  cpu time      5.6008: real time      5.6647

 Broyden mixing:
  rms(total) = 0.42441E-04    rms(broyden)= 0.42441E-04
  rms(prec ) = 0.55109E-04
  weight for this iteration     100.00

 eigenvalues of (default mixing * dielectric matrix)
  average eigenvalue GAMMA=   1.6985
  3.0671  2.4717  2.4717  1.5434  1.1039  1.0302  1.0302  0.8696

 Free energy of the ion-electron system (eV)
  ---------------------------------------------------
  -Hartree energ DENC   =        -0.12895642
  -V(xc)+E(xc)   XCENC  =         0.00266714
  PAW double counting   =         0.76474508       -0.76721710
  entropy T*S    EENTRO =         0.00000000
  eigenvalues    EBANDS =        -1.02868541
  ---------------------------------------------------
  free energy    TOTEN  =        -1.15744670 eV

  energy without entropy =       -1.15744670


----------------------------------------- Iteration    3(  11)  ---------------------------------------


   POT+DIJ:  cpu time      0.1660: real time      0.1730
    HAMIL1:  cpu time      0.5359: real time      0.5705
    LRDIAG:  cpu time      0.7674: real time      0.7366
    LRDIIS:  cpu time      1.7812: real time      2.0941
    LRDIAG:  cpu time      0.8182: real time      0.8219
    MIXING:  cpu time      0.0054: real time      0.0048
    --------------------------------------------
      LOOP:  cpu time      4.3058: real time      4.6246

 Broyden mixing:
  rms(total) = 0.14269E-04    rms(broyden)= 0.14269E-04
  rms(prec ) = 0.21131E-04
  weight for this iteration     100.00

 eigenvalues of (default mixing * dielectric matrix)
  average eigenvalue GAMMA=   1.7548
  3.1836  2.8205  2.3769  1.8623  1.6152  1.0670  1.0670  0.9757  0.8245

 Free energy of the ion-electron system (eV)
  ---------------------------------------------------
  -Hartree energ DENC   =        -0.12894884
  -V(xc)+E(xc)   XCENC  =         0.00266735
  PAW double counting   =         0.76502820       -0.76750016
  entropy T*S    EENTRO =         0.00000000
  eigenvalues    EBANDS =        -1.02869973
  ---------------------------------------------------
  free energy    TOTEN  =        -1.15745318 eV

  energy without entropy =       -1.15745318


----------------------------------------- Iteration    3(  12)  ---------------------------------------


   POT+DIJ:  cpu time      0.1714: real time      0.1683
    HAMIL1:  cpu time      0.5490: real time      0.5794
    LRDIAG:  cpu time      0.7208: real time      0.7162
    LRDIIS:  cpu time      1.3715: real time      1.6429
    LRDIAG:  cpu time      0.8063: real time      0.7711
    MIXING:  cpu time      0.0053: real time      0.0043
    --------------------------------------------
      LOOP:  cpu time      3.8511: real time      4.0871

 Broyden mixing:
  rms(total) = 0.33095E-05    rms(broyden)= 0.33095E-05
  rms(prec ) = 0.44084E-05
  weight for this iteration     100.00

 eigenvalues of (default mixing * dielectric matrix)
  average eigenvalue GAMMA=   1.7001
  3.1582  2.5675  2.5675  2.2358  1.5674  1.0213  1.0213  1.0077  1.0077  0.8467

 Free energy of the ion-electron system (eV)
  ---------------------------------------------------
  -Hartree energ DENC   =        -0.12894888
  -V(xc)+E(xc)   XCENC  =         0.00266724
  PAW double counting   =         0.76517365       -0.76764537
  entropy T*S    EENTRO =         0.00000000
  eigenvalues    EBANDS =        -1.02869650
  ---------------------------------------------------
  free energy    TOTEN  =        -1.15744986 eV

  energy without entropy =       -1.15744986


----------------------------------------- Iteration    3(  13)  ---------------------------------------


   POT+DIJ:  cpu time      0.1692: real time      0.1628
    HAMIL1:  cpu time      0.5738: real time      0.5874
    LRDIAG:  cpu time      0.8892: real time      0.8805
    LRDIIS:  cpu time      1.0557: real time      1.3492
    LRDIAG:  cpu time      0.8274: real time      0.8497
    MIXING:  cpu time      0.0053: real time      0.0047
    --------------------------------------------
      LOOP:  cpu time      3.6778: real time      4.0649

 Broyden mixing:
  rms(total) = 0.17218E-05    rms(broyden)= 0.17218E-05
  rms(prec ) = 0.22730E-05
  weight for this iteration     100.00

 eigenvalues of (default mixing * dielectric matrix)
  average eigenvalue GAMMA=   1.7319
  3.1992  2.7213  2.7213  2.3958  1.5792  1.5792  1.0778  1.0778  0.9616  0.9339
  0.8042

 Free energy of the ion-electron system (eV)
  ---------------------------------------------------
  -Hartree energ DENC   =        -0.12895057
  -V(xc)+E(xc)   XCENC  =         0.00266727
  PAW double counting   =         0.76516149       -0.76763313
  entropy T*S    EENTRO =         0.00000000
  eigenvalues    EBANDS =        -1.02869554
  ---------------------------------------------------
  free energy    TOTEN  =        -1.15745048 eV

  energy without entropy =       -1.15745048


------------------------ aborting loop because EDIFF is reached ----------------------------------------


 change of polarisation eV/A/(eV/A) component  3 :    -0.207     0.071     2.151
 dielectric tensor                  component  3 :    -0.480     0.165     5.975


--------------------------------------------------------------------------------------------------------


    FORLOC:  cpu time      0.0047: real time      0.0034
    FORNL :  cpu time      0.0494: real time      0.0438
    STRESS:  cpu time      0.4123: real time      0.4349
    FORCOR:  cpu time      0.0616: real time      0.0622
    OFIELD:  cpu time      0.0000: real time      0.0000
    FORLOC:  cpu time      0.0023: real time      0.0027
    FORNL :  cpu time      0.0476: real time      0.0549
    STRESS:  cpu time      0.3842: real time      0.3895
    FORCOR:  cpu time      0.0731: real time      0.0678
    OFIELD:  cpu time      0.0001: real time      0.0001
    FORNLD:  cpu time      1.2960: real time      1.3416

 PIEZOELECTRIC TENSOR FIELD DIRECTION 3  (e Angst)
 -----------------------------------------------------------------------------
     1.74319 -0.00000 -0.00000           ( -0.01016 -0.00000 -0.00000)
    -0.00000  1.74319  0.00000           ( -0.00000 -0.01016 -0.00000)
    -0.00000 -0.00000 -3.63246           ( -0.00000 -0.00000  0.01924)

 PIEZOELECTRIC TENSOR FIELD DIRECTION 3  (C/m^2)
 -----------------------------------------------------------------------------
     0.35693 -0.00000 -0.00000
    -0.00000  0.35693  0.00000
    -0.00000 -0.00000 -0.74378


      POSITION         DIRECTION 3           BORN EFFECTIVE CHARGE    (rigid.aug.   ionic)
 -----------------------------------------------------------------------------------------
      1.90290      1.09864      0.00194     0.00000  0.00000  2.03204 ( -8.03807 12.00000)
      1.90290     -1.09864      3.12093     0.00000  0.00000  2.03204 ( -8.03807 12.00000)
      1.90290      1.09864      2.33730    -0.00000  0.00000 -2.03920 (  0.81526  6.00000)
      1.90290     -1.09864      5.45629    -0.00000 -0.00000 -2.03920 (  0.81526  6.00000)
 -----------------------------------------------------------------------------------------
    total drift (improves with k-points):  -0.00000  0.00000 -0.01431




--------------------------------------------------------------------------------------------------------


  LATTYP: Found a hexagonal cell.
 ALAT       =     3.8057964671
 C/A-ratio  =     1.6390738927
  
  Lattice vectors:
  
 A1 = (   1.9028982335,  -3.2959164221,   0.0000000000)
 A2 = (   1.9028982335,   3.2959164221,   0.0000000000)
 A3 = (   0.0000000000,   0.0000000000,   6.2379816300)


Analysis of symmetry for initial positions (statically):
=====================================================================
 Subroutine PRICEL returns:
 Original cell was already a primitive cell.
 

 Routine SETGRP: Setting up the symmetry group for a 
 hexagonal supercell.


 Subroutine GETGRP returns: Found 12 space group operations
 (whereof  6 operations were pure point group operations)
 out of a pool of 24 trial point group operations.


The static configuration has the point symmetry C_3v.
 The point group associated with its full space group is C_6v.


Analysis of symmetry for dynamics (positions and initial velocities):
=====================================================================
 Subroutine PRICEL returns:
 Original cell was already a primitive cell.
 

 Routine SETGRP: Setting up the symmetry group for a 
 hexagonal supercell.


 Subroutine GETGRP returns: Found 12 space group operations
 (whereof  6 operations were pure point group operations)
 out of a pool of 24 trial point group operations.


The dynamic configuration has the point symmetry C_3v.
 The point group associated with its full space group is C_6v.


 Subroutine INISYM returns: Found 12 space group operations
 (whereof  6 operations are pure point group operations),
 and found     1 'primitive' translations



 MACROSCOPIC STATIC DIELECTRIC TENSOR (including local field effects in DFT)
 ------------------------------------------------------
           6.041374    -0.000000     0.000000
          -0.000000     6.041374    -0.000000
           0.000000     0.000000     5.975148
 ------------------------------------------------------



--------------------------------------------------------------------------------------------------------


  LATTYP: Found a hexagonal cell.
 ALAT       =     3.8057964671
 C/A-ratio  =     1.6390738927
  
  Lattice vectors:
  
 A1 = (   1.9028982335,  -3.2959164221,   0.0000000000)
 A2 = (   1.9028982335,   3.2959164221,   0.0000000000)
 A3 = (   0.0000000000,   0.0000000000,   6.2379816300)


Analysis of symmetry for initial positions (statically):
=====================================================================
 Subroutine PRICEL returns:
 Original cell was already a primitive cell.
 

 Routine SETGRP: Setting up the symmetry group for a 
 hexagonal supercell.


 Subroutine GETGRP returns: Found 12 space group operations
 (whereof  6 operations were pure point group operations)
 out of a pool of 24 trial point group operations.


The static configuration has the point symmetry C_3v.
 The point group associated with its full space group is C_6v.


Analysis of symmetry for dynamics (positions and initial velocities):
=====================================================================
 Subroutine PRICEL returns:
 Original cell was already a primitive cell.
 

 Routine SETGRP: Setting up the symmetry group for a 
 hexagonal supercell.


 Subroutine GETGRP returns: Found 12 space group operations
 (whereof  6 operations were pure point group operations)
 out of a pool of 24 trial point group operations.


The dynamic configuration has the point symmetry C_3v.
 The point group associated with its full space group is C_6v.


 Subroutine INISYM returns: Found 12 space group operations
 (whereof  6 operations are pure point group operations),
 and found     1 'primitive' translations



--------------------------------------------------------------------------------------------------------




 MACROSCOPIC STATIC DIELECTRIC TENSOR (including local field effects in DFT)
 ------------------------------------------------------
           6.041374    -0.000000     0.000000
          -0.000000     6.041374    -0.000000
           0.000000     0.000000     5.975148
 ------------------------------------------------------


 PIEZOELECTRIC TENSOR (including local field effects)  for field in x, y, z        (e  Angst)
          XX          YY          ZZ          XY          YZ          ZX
  --------------------------------------------------------------------------------
  x     0.00000    -0.00000     0.00000     0.00000    -0.00000     1.83816
  y     0.00000    -0.00000     0.00000     0.00000     1.83816    -0.00000
  z     1.74319     1.74319    -3.63246    -0.00000    -0.00000     0.00000

 PIEZOELECTRIC TENSOR (including local field effects)  for field in x, y, z        (C/m^2)
          XX          YY          ZZ          XY          YZ          ZX
  --------------------------------------------------------------------------------
  x     0.00000    -0.00000     0.00000     0.00000    -0.00000     0.37638
  y     0.00000    -0.00000     0.00000     0.00000     0.37638    -0.00000
  z     0.35693     0.35693    -0.74378    -0.00000    -0.00000     0.00000

 BORN EFFECTIVE CHARGES (including local field effects) (in |e|, cummulative output)
 ---------------------------------------------------------------------------------
 ion    1
    1     1.96699    -0.00000    -0.00000
    2    -0.00000     1.96699     0.00000
    3     0.00000    -0.00000     2.03562
 ion    2
    1     1.96699    -0.00000     0.00000
    2    -0.00000     1.96699     0.00000
    3    -0.00000     0.00000     2.03562
 ion    3
    1    -1.96699     0.00000     0.00000
    2     0.00000    -1.96699     0.00000
    3     0.00000    -0.00000    -2.03562
 ion    4
    1    -1.96699     0.00000    -0.00000
    2     0.00000    -1.96699    -0.00000
    3    -0.00000    -0.00000    -2.03562


--------------------------------------------------------------------------------------------------------


 writing wavefunctions
     LOOP+:  cpu time    647.9851: real time    732.8701
    4ORBIT:  cpu time      0.0000: real time      0.0000

 total amount of memory used by VASP MPI-rank0    48705. kBytes
=======================================================================

   base      :      30000. kBytes
   nonl-proj :      13055. kBytes
   fftplans  :       1068. kBytes
   grid      :       3045. kBytes
   one-center:         62. kBytes
   wavefun   :       1475. kBytes

  
  
 General timing and accounting informations for this job:
 ========================================================
  
                  Total CPU time used (sec):      648.963
                            User time (sec):      366.038
                          System time (sec):      282.926
                         Elapsed time (sec):      733.896
  
                   Maximum memory used (kb):   121569280.
                   Average memory used (kb):          N/A
  
                          Minor page faults:        20610
                          Major page faults:          216
                 Voluntary context switches:           26
