mesh: [    16,    16,    16 ]
nqpoint: 576    
reciprocal_lattice:
- [   0.25725914,  -0.14852863,   0.00000000 ] # a*
- [   0.25725914,   0.14852863,   0.00000000 ] # b*
- [   0.00000000,   0.00000000,   0.15690381 ] # c*
natom:   4      
lattice:
- [     1.943565552266230,    -3.366354284365775,     0.000000000000000 ] # a
- [     1.943565552266230,     3.366354284365775,     0.000000000000000 ] # b
- [     0.000000000000000,     0.000000000000000,     6.373331546415446 ] # c
points:
- symbol: Zn # 1
  coordinates: [  0.333333333333336,  0.666666666666664,  0.000151801095928 ]
  mass: 65.380000
- symbol: Zn # 2
  coordinates: [  0.666666666666664,  0.333333333333336,  0.500151801095929 ]
  mass: 65.380000
- symbol: S # 3
  coordinates: [  0.333333333333336,  0.666666666666664,  0.374848198904072 ]
  mass: 32.065000
- symbol: S # 4
  coordinates: [  0.666666666666664,  0.333333333333336,  0.874848198904071 ]
  mass: 32.065000

phonon:
- q-position: [    0.0312500,    0.0312500,    0.0312500 ]
  distance_from_gamma:  0.016809708
  weight: 4    
  band:
  - # 1
    frequency:     0.4156310549
  - # 2
    frequency:     0.4208289349
  - # 3
    frequency:     0.8551410362
  - # 4
    frequency:     2.1761241759
  - # 5
    frequency:     2.2394636433
  - # 6
    frequency:     5.5283469562
  - # 7
    frequency:     7.3781162058
  - # 8
    frequency:     7.5325690464
  - # 9
    frequency:     7.6084424624
  - # 10
    frequency:     7.6649758779
  - # 11
    frequency:     7.6757451769
  - # 12
    frequency:     9.2472161341

- q-position: [    0.0937500,    0.0312500,    0.0312500 ]
  distance_from_gamma:  0.033827718
  weight: 8    
  band:
  - # 1
    frequency:     0.8243105036
  - # 2
    frequency:     0.9003905805
  - # 3
    frequency:     1.6289300023
  - # 4
    frequency:     2.2513562640
  - # 5
    frequency:     2.4934288963
  - # 6
    frequency:     5.4472179151
  - # 7
    frequency:     7.4036759973
  - # 8
    frequency:     7.5877606641
  - # 9
    frequency:     7.7184488627
  - # 10
    frequency:     7.7931785378
  - # 11
    frequency:     7.9368009993
  - # 12
    frequency:     9.2267590867

- q-position: [    0.1562500,    0.0312500,    0.0312500 ]
  distance_from_gamma:  0.051917832
  weight: 8    
  band:
  - # 1
    frequency:     1.2230179679
  - # 2
    frequency:     1.3857650760
  - # 3
    frequency:     2.3098013535
  - # 4
    frequency:     2.4760668152
  - # 5
    frequency:     2.8700606580
  - # 6
    frequency:     5.3382084051
  - # 7
    frequency:     7.4612867995
  - # 8
    frequency:     7.6598252557
  - # 9
    frequency:     7.8362021192
  - # 10
    frequency:     7.9774186018
  - # 11
    frequency:     8.3578803525
  - # 12
    frequency:     9.1958145990

- q-position: [    0.2187500,    0.0312500,    0.0312500 ]
  distance_from_gamma:  0.070256720
  weight: 8    
  band:
  - # 1
    frequency:     1.5747118729
  - # 2
    frequency:     1.8388960728
  - # 3
    frequency:     2.4741295791
  - # 4
    frequency:     3.0643483032
  - # 5
    frequency:     3.3629720769
  - # 6
    frequency:     5.2652886900
  - # 7
    frequency:     7.5484069468
  - # 8
    frequency:     7.7207473593
  - # 9
    frequency:     7.9608892178
  - # 10
    frequency:     8.1799013074
  - # 11
    frequency:     8.7797702623
  - # 12
    frequency:     9.1695229385

- q-position: [    0.2812500,    0.0312500,    0.0312500 ]
  distance_from_gamma:  0.088690195
  weight: 8    
  band:
  - # 1
    frequency:     1.8571676868
  - # 2
    frequency:     2.2345625315
  - # 3
    frequency:     2.6023860740
  - # 4
    frequency:     3.3306306896
  - # 5
    frequency:     4.0058385098
  - # 6
    frequency:     5.2960928544
  - # 7
    frequency:     7.6607939740
  - # 8
    frequency:     7.7493181439
  - # 9
    frequency:     8.0768196418
  - # 10
    frequency:     8.3548130726
  - # 11
    frequency:     9.0407548886
  - # 12
    frequency:     9.2284590245

- q-position: [    0.3437500,    0.0312500,    0.0312500 ]
  distance_from_gamma:  0.107169461
  weight: 8    
  band:
  - # 1
    frequency:     2.0525749041
  - # 2
    frequency:     2.5553795722
  - # 3
    frequency:     2.7143623967
  - # 4
    frequency:     3.3890917851
  - # 5
    frequency:     4.5859960417
  - # 6
    frequency:     5.4211723870
  - # 7
    frequency:     7.7390282122
  - # 8
    frequency:     7.7930721370
  - # 9
    frequency:     8.1712953213
  - # 10
    frequency:     8.4740014389
  - # 11
    frequency:     9.0775235922
  - # 12
    frequency:     9.4023126193

- q-position: [    0.4062500,    0.0312500,    0.0312500 ]
  distance_from_gamma:  0.125674319
  weight: 8    
  band:
  - # 1
    frequency:     2.1599859648
  - # 2
    frequency:     2.7896488887
  - # 3
    frequency:     2.8024908735
  - # 4
    frequency:     3.3422622447
  - # 5
    frequency:     5.0254204750
  - # 6
    frequency:     5.5363295599
  - # 7
    frequency:     7.7181894257
  - # 8
    frequency:     7.9098813928
  - # 9
    frequency:     8.2351548036
  - # 10
    frequency:     8.5312456519
  - # 11
    frequency:     9.1031400362
  - # 12
    frequency:     9.4880798793

- q-position: [    0.4687500,    0.0312500,    0.0312500 ]
  distance_from_gamma:  0.144194918
  weight: 8    
  band:
  - # 1
    frequency:     2.1990387096
  - # 2
    frequency:     2.8438687517
  - # 3
    frequency:     2.9165103973
  - # 4
    frequency:     3.2856260584
  - # 5
    frequency:     5.2569900912
  - # 6
    frequency:     5.5683079052
  - # 7
    frequency:     7.7029549325
  - # 8
    frequency:     7.9757936737
  - # 9
    frequency:     8.2633566704
  - # 10
    frequency:     8.5450352611
  - # 11
    frequency:     9.1291951385
  - # 12
    frequency:     9.5029412900

- q-position: [   -0.4687500,    0.0312500,    0.0312500 ]
  distance_from_gamma:  0.134933056
  weight: 8    
  band:
  - # 1
    frequency:     2.1865860693
  - # 2
    frequency:     2.8289194104
  - # 3
    frequency:     2.8714179845
  - # 4
    frequency:     3.3087907419
  - # 5
    frequency:     5.1737041011
  - # 6
    frequency:     5.5620476137
  - # 7
    frequency:     7.7084679293
  - # 8
    frequency:     7.9524283547
  - # 9
    frequency:     8.2539008310
  - # 10
    frequency:     8.5415367244
  - # 11
    frequency:     9.1187442583
  - # 12
    frequency:     9.5002116567

- q-position: [   -0.4062500,    0.0312500,    0.0312500 ]
  distance_from_gamma:  0.116419453
  weight: 8    
  band:
  - # 1
    frequency:     2.1163560107
  - # 2
    frequency:     2.6844275092
  - # 3
    frequency:     2.7620435442
  - # 4
    frequency:     3.3728336710
  - # 5
    frequency:     4.8266124811
  - # 6
    frequency:     5.4870547075
  - # 7
    frequency:     7.7296608412
  - # 8
    frequency:     7.8544541878
  - # 9
    frequency:     8.2074504807
  - # 10
    frequency:     8.5098222644
  - # 11
    frequency:     9.0884386363
  - # 12
    frequency:     9.4576966405

- q-position: [   -0.3437500,    0.0312500,    0.0312500 ]
  distance_from_gamma:  0.097925723
  weight: 8    
  band:
  - # 1
    frequency:     1.9663905956
  - # 2
    frequency:     2.4050588754
  - # 3
    frequency:     2.6606979306
  - # 4
    frequency:     3.3791991971
  - # 5
    frequency:     4.3101616527
  - # 6
    frequency:     5.3522548694
  - # 7
    frequency:     7.7209513549
  - # 8
    frequency:     7.7528638001
  - # 9
    frequency:     8.1274164829
  - # 10
    frequency:     8.4222943423
  - # 11
    frequency:     9.0675546649
  - # 12
    frequency:     9.3208511523

- q-position: [   -0.2812500,    0.0312500,    0.0312500 ]
  distance_from_gamma:  0.079465741
  weight: 8    
  band:
  - # 1
    frequency:     1.7259070456
  - # 2
    frequency:     2.0452172315
  - # 3
    frequency:     2.5400807804
  - # 4
    frequency:     3.2312383757
  - # 5
    frequency:     3.6827884020
  - # 6
    frequency:     5.2654147927
  - # 7
    frequency:     7.6019609686
  - # 8
    frequency:     7.7396083999
  - # 9
    frequency:     8.0208015433
  - # 10
    frequency:     8.2730600882
  - # 11
    frequency:     8.9467226417
  - # 12
    frequency:     9.1752474249

- q-position: [   -0.2187500,    0.0312500,    0.0312500 ]
  distance_from_gamma:  0.061070117
  weight: 8    
  band:
  - # 1
    frequency:     1.4061774965
  - # 2
    frequency:     1.6180776465
  - # 3
    frequency:     2.4037794044
  - # 4
    frequency:     2.8005492069
  - # 5
    frequency:     3.0908859260
  - # 6
    frequency:     5.2923952515
  - # 7
    frequency:     7.5013176034
  - # 8
    frequency:     7.6933918674
  - # 9
    frequency:     7.8987541103
  - # 10
    frequency:     8.0795500286
  - # 11
    frequency:     8.5766488990
  - # 12
    frequency:     9.1802760029

- q-position: [   -0.1562500,    0.0312500,    0.0312500 ]
  distance_from_gamma:  0.042821876
  weight: 8    
  band:
  - # 1
    frequency:     1.0280076704
  - # 2
    frequency:     1.1453243118
  - # 3
    frequency:     2.0213352423
  - # 4
    frequency:     2.3142829473
  - # 5
    frequency:     2.6714955613
  - # 6
    frequency:     5.3928169236
  - # 7
    frequency:     7.4286474736
  - # 8
    frequency:     7.6233874443
  - # 9
    frequency:     7.7752950821
  - # 10
    frequency:     7.8797867439
  - # 11
    frequency:     8.1392366423
  - # 12
    frequency:     9.2120074260

- q-position: [   -0.0937500,    0.0312500,    0.0312500 ]
  distance_from_gamma:  0.025045270
  weight: 8    
  band:
  - # 1
    frequency:     0.6166408311
  - # 2
    frequency:     0.6554961036
  - # 3
    frequency:     1.2307430646
  - # 4
    frequency:     2.2064851880
  - # 5
    frequency:     2.3457031278
  - # 6
    frequency:     5.4941692232
  - # 7
    frequency:     7.3867399691
  - # 8
    frequency:     7.5563893097
  - # 9
    frequency:     7.6672081439
  - # 10
    frequency:     7.7230532431
  - # 11
    frequency:     7.7688344240
  - # 12
    frequency:     9.2387760481

- q-position: [   -0.0312500,    0.0312500,    0.0312500 ]
  distance_from_gamma:  0.010498411
  weight: 4    
  band:
  - # 1
    frequency:     0.2402683997
  - # 2
    frequency:     0.2605714454
  - # 3
    frequency:     0.5702790032
  - # 4
    frequency:     2.1611534325
  - # 5
    frequency:     2.1833983176
  - # 6
    frequency:     5.5462859656
  - # 7
    frequency:     7.3763114161
  - # 8
    frequency:     7.5201277524
  - # 9
    frequency:     7.5502126146
  - # 10
    frequency:     7.6394445292
  - # 11
    frequency:     7.6469944739
  - # 12
    frequency:     9.2515606541

- q-position: [    0.0937500,    0.0937500,    0.0312500 ]
  distance_from_gamma:  0.048484658
  weight: 4    
  band:
  - # 1
    frequency:     1.2128758994
  - # 2
    frequency:     1.2939639735
  - # 3
    frequency:     2.1410195130
  - # 4
    frequency:     2.4763116117
  - # 5
    frequency:     2.7536690800
  - # 6
    frequency:     5.3576307082
  - # 7
    frequency:     7.4475069382
  - # 8
    frequency:     7.6833182614
  - # 9
    frequency:     7.7935386790
  - # 10
    frequency:     7.9389537431
  - # 11
    frequency:     8.2627508714
  - # 12
    frequency:     9.2011682937

- q-position: [    0.1562500,    0.0937500,    0.0312500 ]
  distance_from_gamma:  0.065166005
  weight: 8    
  band:
  - # 1
    frequency:     1.5889156206
  - # 2
    frequency:     1.7170320877
  - # 3
    frequency:     2.4090371177
  - # 4
    frequency:     2.9797367412
  - # 5
    frequency:     3.1077475323
  - # 6
    frequency:     5.2731453738
  - # 7
    frequency:     7.5205891087
  - # 8
    frequency:     7.7758025194
  - # 9
    frequency:     7.9258888868
  - # 10
    frequency:     8.1015854158
  - # 11
    frequency:     8.6444662577
  - # 12
    frequency:     9.1687403775

- q-position: [    0.2187500,    0.0937500,    0.0312500 ]
  distance_from_gamma:  0.082655023
  weight: 8    
  band:
  - # 1
    frequency:     1.9002960966
  - # 2
    frequency:     2.1143187764
  - # 3
    frequency:     2.5782381528
  - # 4
    frequency:     3.2565586463
  - # 5
    frequency:     3.7075876868
  - # 6
    frequency:     5.2566766525
  - # 7
    frequency:     7.6208162588
  - # 8
    frequency:     7.8333576561
  - # 9
    frequency:     8.0598104231
  - # 10
    frequency:     8.2720846330
  - # 11
    frequency:     8.9707307072
  - # 12
    frequency:     9.1541799810

- q-position: [    0.2812500,    0.0937500,    0.0312500 ]
  distance_from_gamma:  0.100531071
  weight: 8    
  band:
  - # 1
    frequency:     2.1339878809
  - # 2
    frequency:     2.4544180524
  - # 3
    frequency:     2.7121940505
  - # 4
    frequency:     3.3641804650
  - # 5
    frequency:     4.2956657041
  - # 6
    frequency:     5.3350244217
  - # 7
    frequency:     7.7377939767
  - # 8
    frequency:     7.8541447531
  - # 9
    frequency:     8.1603046951
  - # 10
    frequency:     8.4254556461
  - # 11
    frequency:     9.0595493653
  - # 12
    frequency:     9.2872081887

- q-position: [    0.3437500,    0.0937500,    0.0312500 ]
  distance_from_gamma:  0.118619299
  weight: 8    
  band:
  - # 1
    frequency:     2.2825704765
  - # 2
    frequency:     2.7189718693
  - # 3
    frequency:     2.8171258883
  - # 4
    frequency:     3.3567419009
  - # 5
    frequency:     4.7827604873
  - # 6
    frequency:     5.4469959060
  - # 7
    frequency:     7.8056490119
  - # 8
    frequency:     7.8997237266
  - # 9
    frequency:     8.2229088713
  - # 10
    frequency:     8.5299798856
  - # 11
    frequency:     9.0587270239
  - # 12
    frequency:     9.4140539999

- q-position: [    0.4062500,    0.0937500,    0.0312500 ]
  distance_from_gamma:  0.136835589
  weight: 8    
  band:
  - # 1
    frequency:     2.3540977080
  - # 2
    frequency:     2.8754844464
  - # 3
    frequency:     2.9026863690
  - # 4
    frequency:     3.3034150528
  - # 5
    frequency:     5.1160962960
  - # 6
    frequency:     5.5018413716
  - # 7
    frequency:     7.7948114673
  - # 8
    frequency:     7.9908196765
  - # 9
    frequency:     8.2530762717
  - # 10
    frequency:     8.5710285720
  - # 11
    frequency:     9.0748413761
  - # 12
    frequency:     9.4569559292

- q-position: [   -0.5312500,    0.0937500,    0.0312500 ]
  distance_from_gamma:  0.145976790
  weight: 8    
  band:
  - # 1
    frequency:     2.3670134590
  - # 2
    frequency:     2.8937570026
  - # 3
    frequency:     2.9406838455
  - # 4
    frequency:     3.2842393367
  - # 5
    frequency:     5.1977601428
  - # 6
    frequency:     5.5026941736
  - # 7
    frequency:     7.7901540527
  - # 8
    frequency:     8.0146432308
  - # 9
    frequency:     8.2583779510
  - # 10
    frequency:     8.5755080382
  - # 11
    frequency:     9.0821121538
  - # 12
    frequency:     9.4610640793

- q-position: [   -0.4687500,    0.0937500,    0.0312500 ]
  distance_from_gamma:  0.127714852
  weight: 8    
  band:
  - # 1
    frequency:     2.3267784602
  - # 2
    frequency:     2.8171328769
  - # 3
    frequency:     2.8584833493
  - # 4
    frequency:     3.3312303502
  - # 5
    frequency:     4.9727406941
  - # 6
    frequency:     5.4850506417
  - # 7
    frequency:     7.8020064983
  - # 8
    frequency:     7.9489894413
  - # 9
    frequency:     8.2415956196
  - # 10
    frequency:     8.5576239931
  - # 11
    frequency:     9.0651608225
  - # 12
    frequency:     9.4436448222

- q-position: [   -0.4062500,    0.0937500,    0.0312500 ]
  distance_from_gamma:  0.109555202
  weight: 8    
  band:
  - # 1
    frequency:     2.2188834920
  - # 2
    frequency:     2.5970209265
  - # 3
    frequency:     2.7683115034
  - # 4
    frequency:     3.3707363538
  - # 5
    frequency:     4.5549248597
  - # 6
    frequency:     5.3931887830
  - # 7
    frequency:     7.7875589098
  - # 8
    frequency:     7.8643138910
  - # 9
    frequency:     8.1960946827
  - # 10
    frequency:     8.4855631024
  - # 11
    frequency:     9.0578837469
  - # 12
    frequency:     9.3624099285

- q-position: [   -0.3437500,    0.0937500,    0.0312500 ]
  distance_from_gamma:  0.091558723
  weight: 8    
  band:
  - # 1
    frequency:     2.0275250046
  - # 2
    frequency:     2.2928812721
  - # 3
    frequency:     2.6489883890
  - # 4
    frequency:     3.3282940796
  - # 5
    frequency:     4.0109723481
  - # 6
    frequency:     5.2858134559
  - # 7
    frequency:     7.6786650245
  - # 8
    frequency:     7.8473103166
  - # 9
    frequency:     8.1149096545
  - # 10
    frequency:     8.3529417726
  - # 11
    frequency:     9.0479420997
  - # 12
    frequency:     9.2006541671

- q-position: [   -0.2812500,    0.0937500,    0.0312500 ]
  distance_from_gamma:  0.073844808
  weight: 8    
  band:
  - # 1
    frequency:     1.7536342422
  - # 2
    frequency:     1.9212550768
  - # 3
    frequency:     2.4989895431
  - # 4
    frequency:     3.1456950861
  - # 5
    frequency:     3.3957533314
  - # 6
    frequency:     5.2529534538
  - # 7
    frequency:     7.5676299884
  - # 8
    frequency:     7.8095564901
  - # 9
    frequency:     7.9958964665
  - # 10
    frequency:     8.1870481999
  - # 11
    frequency:     8.8229359832
  - # 12
    frequency:     9.1550654410

- q-position: [   -0.2187500,    0.0937500,    0.0312500 ]
  distance_from_gamma:  0.056679011
  weight: 8    
  band:
  - # 1
    frequency:     1.4076768771
  - # 2
    frequency:     1.5060177328
  - # 3
    frequency:     2.3000243236
  - # 4
    frequency:     2.7206990087
  - # 5
    frequency:     2.9109062474
  - # 6
    frequency:     5.3108319988
  - # 7
    frequency:     7.4804289376
  - # 8
    frequency:     7.7331370098
  - # 9
    frequency:     7.8555375116
  - # 10
    frequency:     8.0184022568
  - # 11
    frequency:     8.4533614651
  - # 12
    frequency:     9.1851264020

- q-position: [   -0.1562500,    0.0937500,    0.0312500 ]
  distance_from_gamma:  0.040759826
  weight: 8    
  band:
  - # 1
    frequency:     1.0122708131
  - # 2
    frequency:     1.0885065960
  - # 3
    frequency:     1.9006665054
  - # 4
    frequency:     2.3281300366
  - # 5
    frequency:     2.6131477014
  - # 6
    frequency:     5.4053810183
  - # 7
    frequency:     7.4219551454
  - # 8
    frequency:     7.6314471005
  - # 9
    frequency:     7.7472483558
  - # 10
    frequency:     7.8638548750
  - # 11
    frequency:     8.0858439177
  - # 12
    frequency:     9.2153642075

- q-position: [   -0.0937500,    0.0937500,    0.0312500 ]
  distance_from_gamma:  0.028277468
  weight: 4    
  band:
  - # 1
    frequency:     0.6821932068
  - # 2
    frequency:     0.7470017938
  - # 3
    frequency:     1.3858947564
  - # 4
    frequency:     2.2156839523
  - # 5
    frequency:     2.4007408912
  - # 6
    frequency:     5.4779554015
  - # 7
    frequency:     7.3921995793
  - # 8
    frequency:     7.5621928765
  - # 9
    frequency:     7.7015367858
  - # 10
    frequency:     7.7323906649
  - # 11
    frequency:     7.8296239095
  - # 12
    frequency:     9.2347020144

- q-position: [    0.1562500,    0.1562500,    0.0312500 ]
  distance_from_gamma:  0.080542868
  weight: 4    
  band:
  - # 1
    frequency:     1.9619670116
  - # 2
    frequency:     2.0678603381
  - # 3
    frequency:     2.5634075819
  - # 4
    frequency:     3.2352053026
  - # 5
    frequency:     3.5606819895
  - # 6
    frequency:     5.2437969374
  - # 7
    frequency:     7.6077505429
  - # 8
    frequency:     7.9014458411
  - # 9
    frequency:     8.0572334521
  - # 10
    frequency:     8.2185498452
  - # 11
    frequency:     8.9232065611
  - # 12
    frequency:     9.1336983956

- q-position: [    0.2187500,    0.1562500,    0.0312500 ]
  distance_from_gamma:  0.097041731
  weight: 8    
  band:
  - # 1
    frequency:     2.2596386268
  - # 2
    frequency:     2.3961716035
  - # 3
    frequency:     2.7272982603
  - # 4
    frequency:     3.3310117792
  - # 5
    frequency:     4.0683441437
  - # 6
    frequency:     5.2786729763
  - # 7
    frequency:     7.7182180842
  - # 8
    frequency:     7.9710187409
  - # 9
    frequency:     8.1874566257
  - # 10
    frequency:     8.3465719764
  - # 11
    frequency:     9.0745710597
  - # 12
    frequency:     9.1620082069

- q-position: [    0.2812500,    0.1562500,    0.0312500 ]
  distance_from_gamma:  0.114177231
  weight: 8    
  band:
  - # 1
    frequency:     2.4678680905
  - # 2
    frequency:     2.6708610441
  - # 3
    frequency:     2.8660018657
  - # 4
    frequency:     3.3430553315
  - # 5
    frequency:     4.5263684011
  - # 6
    frequency:     5.3517197721
  - # 7
    frequency:     7.8340815759
  - # 8
    frequency:     7.9984627895
  - # 9
    frequency:     8.2483012307
  - # 10
    frequency:     8.4944910070
  - # 11
    frequency:     9.0326761933
  - # 12
    frequency:     9.3011611516

- q-position: [    0.3437500,    0.1562500,    0.0312500 ]
  distance_from_gamma:  0.131701106
  weight: 8    
  band:
  - # 1
    frequency:     2.5914604635
  - # 2
    frequency:     2.8702604796
  - # 3
    frequency:     2.9629258304
  - # 4
    frequency:     3.3109686113
  - # 5
    frequency:     4.8918898344
  - # 6
    frequency:     5.3982805995
  - # 7
    frequency:     7.9001749845
  - # 8
    frequency:     8.0494293532
  - # 9
    frequency:     8.2542846256
  - # 10
    frequency:     8.5998214501
  - # 11
    frequency:     9.0007489700
  - # 12
    frequency:     9.3700913384

- q-position: [    0.4062500,    0.1562500,    0.0312500 ]
  distance_from_gamma:  0.149476825
  weight: 8    
  band:
  - # 1
    frequency:     2.6407047583
  - # 2
    frequency:     2.9795798677
  - # 3
    frequency:     2.9968369476
  - # 4
    frequency:     3.2806984866
  - # 5
    frequency:     5.0987552771
  - # 6
    frequency:     5.3878005604
  - # 7
    frequency:     7.9076408423
  - # 8
    frequency:     8.1188616453
  - # 9
    frequency:     8.2334417311
  - # 10
    frequency:     8.6346657377
  - # 11
    frequency:     8.9953796800
  - # 12
    frequency:     9.3896267211

- q-position: [   -0.5312500,    0.1562500,    0.0312500 ]
  distance_from_gamma:  0.140563425
  weight: 8    
  band:
  - # 1
    frequency:     2.6246064484
  - # 2
    frequency:     2.9371328331
  - # 3
    frequency:     2.9897443534
  - # 4
    frequency:     3.2925268185
  - # 5
    frequency:     5.0221727666
  - # 6
    frequency:     5.3975468841
  - # 7
    frequency:     7.9067378626
  - # 8
    frequency:     8.0894949431
  - # 9
    frequency:     8.2445082112
  - # 10
    frequency:     8.6246839579
  - # 11
    frequency:     8.9958538651
  - # 12
    frequency:     9.3840176848

- q-position: [   -0.4687500,    0.1562500,    0.0312500 ]
  distance_from_gamma:  0.122900919
  weight: 8    
  band:
  - # 1
    frequency:     2.5397310607
  - # 2
    frequency:     2.7809353218
  - # 3
    frequency:     2.9206278779
  - # 4
    frequency:     3.3297278833
  - # 5
    frequency:     4.7237108580
  - # 6
    frequency:     5.3821697175
  - # 7
    frequency:     7.8777860613
  - # 8
    frequency:     8.0164240575
  - # 9
    frequency:     8.2565363456
  - # 10
    frequency:     8.5559993201
  - # 11
    frequency:     9.0132945669
  - # 12
    frequency:     9.3437639600

- q-position: [   -0.4062500,    0.1562500,    0.0312500 ]
  distance_from_gamma:  0.105549012
  weight: 8    
  band:
  - # 1
    frequency:     2.3747414841
  - # 2
    frequency:     2.5418400803
  - # 3
    frequency:     2.8010455771
  - # 4
    frequency:     3.3453372745
  - # 5
    frequency:     4.3061117738
  - # 6
    frequency:     5.3142227469
  - # 7
    frequency:     7.7777141896
  - # 8
    frequency:     7.9869280378
  - # 9
    frequency:     8.2266000600
  - # 10
    frequency:     8.4215460447
  - # 11
    frequency:     9.0552385588
  - # 12
    frequency:     9.2398864206

- q-position: [   -0.3437500,    0.1562500,    0.0312500 ]
  distance_from_gamma:  0.088690195
  weight: 8    
  band:
  - # 1
    frequency:     2.1220307259
  - # 2
    frequency:     2.2369081687
  - # 3
    frequency:     2.6468923849
  - # 4
    frequency:     3.2953471582
  - # 5
    frequency:     3.8181092975
  - # 6
    frequency:     5.2533756566
  - # 7
    frequency:     7.6606944959
  - # 8
    frequency:     7.9438715694
  - # 9
    frequency:     8.1286242423
  - # 10
    frequency:     8.2785822758
  - # 11
    frequency:     9.0379295350
  - # 12
    frequency:     9.1188102054

- q-position: [   -0.2812500,    0.1562500,    0.0312500 ]
  distance_from_gamma:  0.072668467
  weight: 8    
  band:
  - # 1
    frequency:     1.7818993296
  - # 2
    frequency:     1.8931209416
  - # 3
    frequency:     2.4820423120
  - # 4
    frequency:     3.1452252466
  - # 5
    frequency:     3.3062077471
  - # 6
    frequency:     5.2512662346
  - # 7
    frequency:     7.5607975568
  - # 8
    frequency:     7.8432855226
  - # 9
    frequency:     7.9869019744
  - # 10
    frequency:     8.1609033583
  - # 11
    frequency:     8.7887093616
  - # 12
    frequency:     9.1519123319

- q-position: [   -0.2187500,    0.1562500,    0.0312500 ]
  distance_from_gamma:  0.058179549
  weight: 8    
  band:
  - # 1
    frequency:     1.3960208144
  - # 2
    frequency:     1.5453024207
  - # 3
    frequency:     2.3505539648
  - # 4
    frequency:     2.7306324693
  - # 5
    frequency:     2.9833523428
  - # 6
    frequency:     5.3041909323
  - # 7
    frequency:     7.4874386280
  - # 8
    frequency:     7.7109093754
  - # 9
    frequency:     7.8757305521
  - # 10
    frequency:     8.0397736754
  - # 11
    frequency:     8.4979834971
  - # 12
    frequency:     9.1834873432

- q-position: [   -0.1562500,    0.1562500,    0.0312500 ]
  distance_from_gamma:  0.046673466
  weight: 4    
  band:
  - # 1
    frequency:     1.0945387870
  - # 2
    frequency:     1.2484695106
  - # 3
    frequency:     2.2147872852
  - # 4
    frequency:     2.3151905728
  - # 5
    frequency:     2.7631836723
  - # 6
    frequency:     5.3693358956
  - # 7
    frequency:     7.4417878100
  - # 8
    frequency:     7.6300225178
  - # 9
    frequency:     7.8051106741
  - # 10
    frequency:     7.9202050964
  - # 11
    frequency:     8.2343481659
  - # 12
    frequency:     9.2054163840

- q-position: [    0.2187500,    0.2187500,    0.0312500 ]
  distance_from_gamma:  0.112657627
  weight: 4    
  band:
  - # 1
    frequency:     2.5653301933
  - # 2
    frequency:     2.6508367532
  - # 3
    frequency:     2.8958635771
  - # 4
    frequency:     3.3311438797
  - # 5
    frequency:     4.4056711178
  - # 6
    frequency:     5.3113714579
  - # 7
    frequency:     7.8325163814
  - # 8
    frequency:     8.0530867473
  - # 9
    frequency:     8.3347223792
  - # 10
    frequency:     8.4094193013
  - # 11
    frequency:     9.0431525468
  - # 12
    frequency:     9.2318307996

- q-position: [    0.2812500,    0.2187500,    0.0312500 ]
  distance_from_gamma:  0.129057285
  weight: 8    
  band:
  - # 1
    frequency:     2.7791682050
  - # 2
    frequency:     2.8576325648
  - # 3
    frequency:     3.0464321783
  - # 4
    frequency:     3.2980364828
  - # 5
    frequency:     4.7044120696
  - # 6
    frequency:     5.3179714624
  - # 7
    frequency:     7.9388435510
  - # 8
    frequency:     8.0919519096
  - # 9
    frequency:     8.3711244275
  - # 10
    frequency:     8.5401933944
  - # 11
    frequency:     8.9743405645
  - # 12
    frequency:     9.2825162406

- q-position: [    0.3437500,    0.2187500,    0.0312500 ]
  distance_from_gamma:  0.145976790
  weight: 8    
  band:
  - # 1
    frequency:     2.9001067230
  - # 2
    frequency:     2.9997094544
  - # 3
    frequency:     3.1183134740
  - # 4
    frequency:     3.2761607979
  - # 5
    frequency:     4.9360622383
  - # 6
    frequency:     5.2767087911
  - # 7
    frequency:     7.9896716467
  - # 8
    frequency:     8.1524358080
  - # 9
    frequency:     8.3323778076
  - # 10
    frequency:     8.6594744337
  - # 11
    frequency:     8.9048860530
  - # 12
    frequency:     9.3086484658

- q-position: [   -0.5937500,    0.2187500,    0.0312500 ]
  distance_from_gamma:  0.154578355
  weight: 8    
  band:
  - # 1
    frequency:     2.9249137586
  - # 2
    frequency:     3.0420721786
  - # 3
    frequency:     3.1133723166
  - # 4
    frequency:     3.2779943686
  - # 5
    frequency:     5.0019267619
  - # 6
    frequency:     5.2508853814
  - # 7
    frequency:     7.9956527403
  - # 8
    frequency:     8.1803085578
  - # 9
    frequency:     8.3119955190
  - # 10
    frequency:     8.6894175370
  - # 11
    frequency:     8.8842482541
  - # 12
    frequency:     9.3136484265

- q-position: [   -0.5312500,    0.2187500,    0.0312500 ]
  distance_from_gamma:  0.137463916
  weight: 8    
  band:
  - # 1
    frequency:     2.8511913197
  - # 2
    frequency:     2.9370885376
  - # 3
    frequency:     3.0970847280
  - # 4
    frequency:     3.2823269766
  - # 5
    frequency:     4.8317483530
  - # 6
    frequency:     5.3029429263
  - # 7
    frequency:     7.9728120956
  - # 8
    frequency:     8.1182692871
  - # 9
    frequency:     8.3555935961
  - # 10
    frequency:     8.6073933902
  - # 11
    frequency:     8.9373942552
  - # 12
    frequency:     9.2984014470

- q-position: [   -0.4687500,    0.2187500,    0.0312500 ]
  distance_from_gamma:  0.120779083
  weight: 8    
  band:
  - # 1
    frequency:     2.6841973655
  - # 2
    frequency:     2.7615572515
  - # 3
    frequency:     2.9763880563
  - # 4
    frequency:     3.3163240712
  - # 5
    frequency:     4.5610397297
  - # 6
    frequency:     5.3200603796
  - # 7
    frequency:     7.8894632822
  - # 8
    frequency:     8.0733890955
  - # 9
    frequency:     8.3705460302
  - # 10
    frequency:     8.4665956498
  - # 11
    frequency:     9.0108155641
  - # 12
    frequency:     9.2605063259

- q-position: [   -0.4062500,    0.2187500,    0.0312500 ]
  distance_from_gamma:  0.104729386