 vasp.6.3.2 27Jun22 (build Mar 25 2023 04:39:50) complex                        
  
 executed on             LinuxIFC date 2025.12.13  06:39:41
 running on   64 total cores
 distrk:  each k-point on   64 cores,    1 groups
 distr:  one band on NCORE=   1 cores,   64 groups


--------------------------------------------------------------------------------------------------------


 INCAR:
   GGA = PE
   PREC = Accurate
   ENCUT = 520
   KSPACING = 0.3
   ISMEAR = 0
   SIGMA = 0.03
   EDIFF = 1e-8
   NELM = 120
   NELMIN = 8

 POTCAR:    PAW_PBE Zn 06Sep2000                  
 POTCAR:    PAW_PBE S 06Sep2000                   
 -----------------------------------------------------------------------------
|                                                                             |
|           W    W    AA    RRRRR   N    N  II  N    N   GGGG   !!!           |
|           W    W   A  A   R    R  NN   N  II  NN   N  G    G  !!!           |
|           W    W  A    A  R    R  N N  N  II  N N  N  G       !!!           |
|           W WW W  AAAAAA  RRRRR   N  N N  II  N  N N  G  GGG   !            |
|           WW  WW  A    A  R   R   N   NN  II  N   NN  G    G                |
|           W    W  A    A  R    R  N    N  II  N    N   GGGG   !!!           |
|                                                                             |
|     For optimal performance we recommend to set                             |
|       NCORE = 2 up to number-of-cores-per-socket                            |
|     NCORE specifies how many cores store one orbital (NPAR=cpu/NCORE).      |
|     This setting can greatly improve the performance of VASP for DFT.       |
|     The default, NCORE=1 might be grossly inefficient on modern             |
|     multi-core architectures or massively parallel machines. Do your        |
|     own testing! More info at https://www.vasp.at/wiki/index.php/NCORE      |
|     Unfortunately you need to use the default for GW and RPA                |
|     calculations (for HF NCORE is supported but not extensively tested      |
|     yet).                                                                   |
|                                                                             |
 -----------------------------------------------------------------------------

 POTCAR:    PAW_PBE Zn 06Sep2000                  
   SHA256 =  501fddbd8274dd8e9725d4f3de27861d7f1e553a7e18441bc79fed8f346e7f23 Zn/POTCAR             
   COPYR  = (c) Copyright 06Sep2000 Georg Kresse                                                    
   COPYR  = This file is part of the software VASP. Any use, copying, and all other rights are regul
   COPYR  = If you do not have a valid VASP license, you may not use, copy or distribute this file. 
   VRHFIN =Zn: d10 p2                                                                               
   LEXCH  = PE                                                                                      
   EATOM  =  1748.8345 eV,  128.5357 Ry                                                             
                                                                                                    
   TITEL  = PAW_PBE Zn 06Sep2000                                                                    
   LULTRA =        F    use ultrasoft PP ?                                                          
   IUNSCR =        1    unscreen: 0-lin 1-nonlin 2-no                                               
   RPACOR =    2.000    partial core radius                                                         
   POMASS =   65.390; ZVAL   =   12.000    mass and valenz                                          
   RCORE  =    2.300    outmost cutoff radius                                                       
   RWIGS  =    2.400; RWIGS  =    1.270    wigner-seitz radius (au A)                               
   ENMAX  =  276.723; ENMIN  =  207.542 eV                                                          
   RCLOC  =    1.828    cutoff for local pot                                                        
   LCOR   =        T    correct aug charges                                                         
   LPAW   =        T    paw PP                                                                      
   EAUG   =  575.892                                                                                
   DEXC   =    0.000                                                                                
   RMAX   =    2.347    core radius for proj-oper                                                   
   RAUG   =    1.300    factor for augmentation sphere                                              
   RDEP   =    2.324    radius for radial grids                                                     
   RDEPT  =    1.788    core radius for aug-charge                                                  
                                                                                                    
   Atomic configuration                                                                             
    9 entries                                                                                       
     n  l   j            E        occ.                                                              
     1  0  0.50     -9524.6913   2.0000                                                             
     2  0  0.50     -1158.1882   2.0000                                                             
     2  1  1.50     -1003.8506   6.0000                                                             
     3  0  0.50      -129.2194   2.0000                                                             
     3  1  1.50       -83.3890   6.0000                                                             
     3  2  2.50       -10.1410  10.0000                                                             
     4  0  0.50        -5.9785   2.0000                                                             
     4  1  0.50        -4.0817   0.0000                                                             
     4  3  2.50        -1.3606   0.0000                                                             
   Description                                                                                      
     l       E           TYP  RCUT    TYP  RCUT                                                     
     2    -10.1410010     23  2.300                                                                 
     2    -11.5015836     23  2.300                                                                 
     0     -5.9785163     23  2.300                                                                 
     0      1.1858015     23  2.300                                                                 
     1     -2.7211652     23  2.300                                                                 
     1     13.2444212     23  2.300                                                                 
  local pseudopotential read in
  partial core-charges read in
  partial kinetic energy density read in
  atomic valenz-charges read in
  non local Contribution for L=           2  read in
    real space projection operators read in
  non local Contribution for L=           2  read in
    real space projection operators read in
  non local Contribution for L=           0  read in
    real space projection operators read in
  non local Contribution for L=           0  read in
    real space projection operators read in
  non local Contribution for L=           1  read in
    real space projection operators read in
  non local Contribution for L=           1  read in
    real space projection operators read in
    PAW grid and wavefunctions read in
 
   number of l-projection  operators is LMAX  =           6
   number of lm-projection operators is LMMAX =          18
 
 POTCAR:    PAW_PBE S 06Sep2000                   
   SHA256 =  0fc7481fb0695f01bdc6462160264c5c84044ae9ec85a907d398b887a2bc3132 S/POTCAR              
   COPYR  = (c) Copyright 06Sep2000 Georg Kresse                                                    
   COPYR  = This file is part of the software VASP. Any use, copying, and all other rights are regul
   COPYR  = If you do not have a valid VASP license, you may not use, copy or distribute this file. 
   VRHFIN =S : s2p4                                                                                 
   LEXCH  = PE                                                                                      
   EATOM  =   276.8230 eV,   20.3459 Ry                                                             
                                                                                                    
   TITEL  = PAW_PBE S 06Sep2000                                                                     
   LULTRA =        F    use ultrasoft PP ?                                                          
   IUNSCR =        1    unscreen: 0-lin 1-nonlin 2-no                                               
   RPACOR =    1.500    partial core radius                                                         
   POMASS =   32.066; ZVAL   =    6.000    mass and valenz                                          
   RCORE  =    1.900    outmost cutoff radius                                                       
   RWIGS  =    2.200; RWIGS  =    1.164    wigner-seitz radius (au A)                               
   ENMAX  =  258.689; ENMIN  =  194.016 eV                                                          
   ICORE  =        2    local potential                                                             
   LCOR   =        T    correct aug charges                                                         
   LPAW   =        T    paw PP                                                                      
   EAUG   =  335.092                                                                                
   DEXC   =    0.000                                                                                
   RMAX   =    1.942    core radius for proj-oper                                                   
   RAUG   =    1.300    factor for augmentation sphere                                              
   RDEP   =    1.954    radius for radial grids                                                     
   RDEPT  =    1.744    core radius for aug-charge                                                  
                                                                                                    
   Atomic configuration                                                                             
    6 entries                                                                                       
     n  l   j            E        occ.                                                              
     1  0  0.50     -2405.8406   2.0000                                                             
     2  0  0.50      -211.7007   2.0000                                                             
     2  1  1.50      -156.4958   6.0000                                                             
     3  0  0.50       -17.2562   2.0000                                                             
     3  1  0.50        -7.0085   4.0000                                                             
     3  2  1.50        -6.8029   0.0000                                                             
   Description                                                                                      
     l       E           TYP  RCUT    TYP  RCUT                                                     
     0    -17.2561641     23  1.900                                                                 
     0    -15.8743224     23  1.900                                                                 
     1     -7.0085400     23  1.900                                                                 
     1     -2.7779785     23  1.900                                                                 
     2     -6.8029130     23  1.900                                                                 
  local pseudopotential read in
  partial core-charges read in
  partial kinetic energy density read in
  atomic valenz-charges read in
  non local Contribution for L=           0  read in
    real space projection operators read in
  non local Contribution for L=           0  read in
    real space projection operators read in
  non local Contribution for L=           1  read in
    real space projection operators read in
  non local Contribution for L=           1  read in
    real space projection operators read in
    PAW grid and wavefunctions read in
 
   number of l-projection  operators is LMAX  =           4
   number of lm-projection operators is LMMAX =           8
 
  PAW_PBE Zn 06Sep2000                  :
 energy of atom  1       EATOM=-1748.8345
 kinetic energy error for atom=    0.0029 (will be added to EATOM!!)
  PAW_PBE S 06Sep2000                   :
 energy of atom  2       EATOM= -276.8230
 kinetic energy error for atom=    0.0016 (will be added to EATOM!!)
 
 
 POSCAR: generated by phonopy
  positions in direct lattice
  No initial velocities read in
 exchange correlation table for  LEXCH =        8
   RHO(1)=    0.500       N(1)  =     2000
   RHO(2)=  100.500       N(2)  =     4000
 


--------------------------------------------------------------------------------------------------------


 ion  position               nearest neighbor table
   1  0.167  0.333  0.000-  13 2.33  14 2.33  15 2.33   9 2.34
   2  0.667  0.333  0.000-  14 2.33  13 2.33  16 2.33  10 2.34
   3  0.167  0.833  0.000-  15 2.33  13 2.33  16 2.33  11 2.34
   4  0.667  0.833  0.000-  16 2.33  15 2.33  14 2.33  12 2.34
   5  0.333  0.167  0.500-   9 2.33  10 2.33  11 2.33  13 2.34
   6  0.833  0.167  0.500-  10 2.33   9 2.33  12 2.33  14 2.34
   7  0.333  0.667  0.500-  11 2.33   9 2.33  12 2.33  15 2.34
   8  0.833  0.667  0.500-  12 2.33  11 2.33  10 2.33  16 2.34
   9  0.167  0.333  0.375-   5 2.33   6 2.33   7 2.33   1 2.34
  10  0.667  0.333  0.375-   6 2.33   5 2.33   8 2.33   2 2.34
  11  0.167  0.833  0.375-   7 2.33   5 2.33   8 2.33   3 2.34
  12  0.667  0.833  0.375-   8 2.33   7 2.33   6 2.33   4 2.34
  13  0.333  0.167  0.875-   1 2.33   2 2.33   3 2.33   5 2.34
  14  0.833  0.167  0.875-   2 2.33   1 2.33   4 2.33   6 2.34
  15  0.333  0.667  0.875-   3 2.33   1 2.33   4 2.33   7 2.34
  16  0.833  0.667  0.875-   4 2.33   3 2.33   2 2.33   8 2.34
 
  LATTYP: Found a hexagonal cell.
 ALAT       =     7.6115929342
 C/A-ratio  =     0.8195369463
  
  Lattice vectors:
  
 A1 = (   3.8057964671,  -6.5918328443,   0.0000000000)
 A2 = (   3.8057964671,   6.5918328443,   0.0000000000)
 A3 = (   0.0000000000,   0.0000000000,   6.2379816300)


Analysis of symmetry for initial positions (statically):
=====================================================================
 Subroutine PRICEL returns following result:
 
  LATTYP: Found a hexagonal cell.
 ALAT       =     3.8057964671
 C/A-ratio  =     1.6390738927
  
  Lattice vectors:
  
 A1 = (   1.9028982335,  -3.2959164221,   0.0000000000)
 A2 = (   1.9028982335,   3.2959164221,   0.0000000000)
 A3 = (   0.0000000000,   0.0000000000,   6.2379816300)
 
   4 primitive cells build up your supercell.
 

 Routine SETGRP: Setting up the symmetry group for a 
 hexagonal supercell.


 Subroutine GETGRP returns: Found 12 space group operations
 (whereof  6 operations were pure point group operations)
 out of a pool of 24 trial point group operations.


The static configuration has the point symmetry C_3v.
 The point group associated with its full space group is C_6v.


Analysis of symmetry for dynamics (positions and initial velocities):
=====================================================================
 Subroutine PRICEL returns following result:
 
  LATTYP: Found a hexagonal cell.
 ALAT       =     3.8057964671
 C/A-ratio  =     1.6390738927
  
  Lattice vectors:
  
 A1 = (   1.9028982335,  -3.2959164221,   0.0000000000)
 A2 = (   1.9028982335,   3.2959164221,   0.0000000000)
 A3 = (   0.0000000000,   0.0000000000,   6.2379816300)
 
   4 primitive cells build up your supercell.
 

 Routine SETGRP: Setting up the symmetry group for a 
 hexagonal supercell.


 Subroutine GETGRP returns: Found 12 space group operations
 (whereof  6 operations were pure point group operations)
 out of a pool of 24 trial point group operations.


The dynamic configuration has the point symmetry C_3v.
 The point group associated with its full space group is C_6v.


 Subroutine INISYM returns: Found 12 space group operations
 (whereof  6 operations are pure point group operations),
 and found     4 'primitive' translations


----------------------------------------------------------------------------------------

                                     Primitive cell                                     

  volume of cell :      78.2467

  direct lattice vectors                    reciprocal lattice vectors
     1.902898234 -3.295916422  0.000000000     0.262757089 -0.151702876  0.000000000
     1.902898234  3.295916422  0.000000000     0.262757089  0.151702876  0.000000000
     0.000000000  0.000000000  6.237981630     0.000000000  0.000000000  0.160308263

  length of vectors
     3.805796467  3.805796467  6.237981630     0.303405752  0.303405752  0.160308263

  position of ions in fractional coordinates (direct lattice)
     0.333333333  0.666666667  0.000311508
     0.666666667  0.333333333  0.500311508
     0.333333333  0.666666667  0.374688492
     0.666666667  0.333333333  0.874688492

  ion indices of the primitive-cell ions
   primitive index   ion index
                 1           1
                 2           5
                 3           9
                 4          13

----------------------------------------------------------------------------------------

 
 
 KPOINTS: Automatic kpoint scheme                 

Automatic generation of k-mesh.
 Grid dimensions read from file:
 generate k-points for:    3    3    4

 Generating k-lattice:

  Cartesian coordinates                     Fractional coordinates (reciprocal lattice)
     0.043792848 -0.025283813  0.000000000     0.333333333  0.000000000  0.000000000
     0.043792848  0.025283813  0.000000000     0.000000000  0.333333333  0.000000000
     0.000000000  0.000000000  0.040077066     0.000000000  0.000000000  0.250000000

  Length of vectors
     0.050567625  0.050567625  0.040077066

  Shift w.r.t. Gamma in fractional coordinates (k-lattice)
     0.000000000  0.000000000  0.000000000

 
 Subroutine IBZKPT returns following result:
 ===========================================
 
 Found      9 irreducible k-points:
 
 Following reciprocal coordinates:
            Coordinates               Weight
  0.000000  0.000000  0.000000      1.000000
  0.333333 -0.000000  0.000000      6.000000
  0.333333  0.333333  0.000000      2.000000
  0.000000  0.000000  0.250000      2.000000
  0.333333 -0.000000  0.250000     12.000000
  0.333333  0.333333  0.250000      4.000000
  0.000000  0.000000  0.500000      1.000000
  0.333333 -0.000000  0.500000      6.000000
  0.333333  0.333333  0.500000      2.000000
 
 Following cartesian coordinates:
            Coordinates               Weight
  0.000000  0.000000  0.000000      1.000000
  0.043793 -0.025284  0.000000      6.000000
  0.087586  0.000000  0.000000      2.000000
  0.000000  0.000000  0.040077      2.000000
  0.043793 -0.025284  0.040077     12.000000
  0.087586  0.000000  0.040077      4.000000
  0.000000  0.000000  0.080154      1.000000
  0.043793 -0.025284  0.080154      6.000000
  0.087586  0.000000  0.080154      2.000000
 


--------------------------------------------------------------------------------------------------------




 Dimension of arrays:
   k-points           NKPTS =      9   k-points in BZ     NKDIM =      9   number of bands    NBANDS=    128
   number of dos      NEDOS =    301   number of ions     NIONS =     16
   non local maximal  LDIM  =      6   non local SUM 2l+1 LMDIM =     18
   total plane-waves  NPLWV = 172800
   max r-space proj   IRMAX =      1   max aug-charges    IRDMAX=  17591
   dimension x,y,z NGX =    60 NGY =   60 NGZ =   48
   dimension x,y,z NGXF=   120 NGYF=  120 NGZF=   96
   support grid    NGXF=   120 NGYF=  120 NGZF=   96
   ions per type =               8   8
   NGX,Y,Z   is equivalent  to a cutoff of  13.10, 13.10, 12.79 a.u.
   NGXF,Y,Z  is equivalent  to a cutoff of  26.21, 26.21, 25.58 a.u.

 SYSTEM =  unknown system                          
 POSCAR =  generated by phonopy                    

 Startparameter for this run:
   NWRITE =      2    write-flag & timer
   PREC   = accura    normal or accurate (medium, high low for compatibility)
   ISTART =      0    job   : 0-new  1-cont  2-samecut
   ICHARG =      2    charge: 1-file 2-atom 10-const
   ISPIN  =      1    spin polarized calculation?
   LNONCOLLINEAR =      F non collinear calculations
   LSORBIT =      F    spin-orbit coupling
   INIWAV =      1    electr: 0-lowe 1-rand  2-diag
   LASPH  =      F    aspherical Exc in radial PAW
 Electronic Relaxation 1
   ENCUT  =  520.0 eV  38.22 Ry    6.18 a.u.  14.15 14.15 11.60*2*pi/ulx,y,z
   ENINI  =  520.0     initial cutoff
   ENAUG  =  575.9 eV  augmentation charge cutoff
   NELM   =    120;   NELMIN=  8; NELMDL= -5     # of ELM steps 
   EDIFF  = 0.1E-07   stopping-criterion for ELM
   LREAL  =      F    real-space projection
   NLSPLINE    = F    spline interpolate recip. space projectors
   LCOMPAT=      F    compatible to vasp.4.4
   GGA_COMPAT  = T    GGA compatible to vasp.4.4-vasp.4.6
   LMAXPAW     = -100 max onsite density
   LMAXMIX     =    2 max onsite mixed and CHGCAR
   VOSKOWN=      0    Vosko Wilk Nusair interpolation
   ROPT   =    0.00000   0.00000
 Ionic relaxation
   EDIFFG = 0.1E-06   stopping-criterion for IOM
   NSW    =      0    number of steps for IOM
   NBLOCK =      1;   KBLOCK =      1    inner block; outer block 
   IBRION =     -1    ionic relax: 0-MD 1-quasi-New 2-CG
   NFREE  =      0    steps in history (QN), initial steepest desc. (CG)
   ISIF   =      2    stress and relaxation
   IWAVPR =     10    prediction:  0-non 1-charg 2-wave 3-comb
   ISYM   =      2    0-nonsym 1-usesym 2-fastsym
   LCORR  =      T    Harris-Foulkes like correction to forces

   POTIM  = 0.5000    time-step for ionic-motion
   TEIN   =    0.0    initial temperature
   TEBEG  =    0.0;   TEEND  =   0.0 temperature during run
   SMASS  =  -3.00    Nose mass-parameter (am)
   estimated Nose-frequenzy (Omega)   =  0.10E-29 period in steps = 0.13E+47 mass=  -0.132E-26a.u.
   SCALEE = 1.0000    scale energy and forces
   NPACO  =    256;   APACO  = 10.0  distance and # of slots for P.C.
   PSTRESS=    0.0 pullay stress

  Mass of Ions in am
   POMASS =  65.39 32.07
  Ionic Valenz
   ZVAL   =  12.00  6.00
  Atomic Wigner-Seitz radii
   RWIGS  =  -1.00 -1.00
  virtual crystal weights 
   VCA    =   1.00  1.00
   NELECT =     144.0000    total number of electrons
   NUPDOWN=      -1.0000    fix difference up-down

 DOS related values:
   EMIN   =  10.00;   EMAX   =-10.00  energy-range for DOS
   EFERMI =   0.00
   ISMEAR =     0;   SIGMA  =   0.03  broadening in eV -4-tet -1-fermi 0-gaus

 Electronic relaxation 2 (details)
   IALGO  =     38    algorithm
   LDIAG  =      T    sub-space diagonalisation (order eigenvalues)
   LSUBROT=      F    optimize rotation matrix (better conditioning)
   TURBO    =      0    0=normal 1=particle mesh
   IRESTART =      0    0=no restart 2=restart with 2 vectors
   NREBOOT  =      0    no. of reboots
   NMIN     =      0    reboot dimension
   EREF     =   0.00    reference energy to select bands
   IMIX   =      4    mixing-type and parameters
     AMIX     =   0.40;   BMIX     =  1.00
     AMIX_MAG =   1.60;   BMIX_MAG =  1.00
     AMIN     =   0.10
     WC   =   100.;   INIMIX=   1;  MIXPRE=   1;  MAXMIX= -45

 Intra band minimization:
   WEIMIN = 0.0000     energy-eigenvalue tresh-hold
   EBREAK =  0.20E-10  absolut break condition
   DEPER  =   0.30     relativ break condition  

   TIME   =   0.40     timestep for ELM

  volume/ion in A,a.u.               =      19.56       132.01
  Fermi-wavevector in a.u.,A,eV,Ry     =   1.263825  2.388284 21.731966  1.597254
  Thomas-Fermi vector in A             =   2.397162
 
 Write flags
   LWAVE        =      T    write WAVECAR
   LDOWNSAMPLE  =      F    k-point downsampling of WAVECAR
   LCHARG       =      T    write CHGCAR
   LVTOT        =      F    write LOCPOT, total local potential
   LVHAR        =      F    write LOCPOT, Hartree potential only
   LELF         =      F    write electronic localiz. function (ELF)
   LORBIT       =      0    0 simple, 1 ext, 2 COOP (PROOUT), +10 PAW based schemes


 Dipole corrections
   LMONO  =      F    monopole corrections only (constant potential shift)
   LDIPOL =      F    correct potential (dipole corrections)
   IDIPOL =      0    1-x, 2-y, 3-z, 4-all directions 
   EPSILON=  1.0000000 bulk dielectric constant

 Exchange correlation treatment:
   GGA     =    PE    GGA type
   LEXCH   =     8    internal setting for exchange type
   LIBXC   =     F    Libxc                    
   VOSKOWN =     0    Vosko Wilk Nusair interpolation
   LHFCALC =     F    Hartree Fock is set to
   LHFONE  =     F    Hartree Fock one center treatment
   AEXX    =    0.0000 exact exchange contribution

 Linear response parameters
   LEPSILON=     F    determine dielectric tensor
   LRPA    =     F    only Hartree local field effects (RPA)
   LNABLA  =     F    use nabla operator in PAW spheres
   LVEL    =     F    velocity operator in full k-point grid
   CSHIFT  =0.1000    complex shift for real part using Kramers Kronig
   OMEGAMAX=  -1.0    maximum frequency
   DEG_THRESHOLD= 0.2000000E-02 threshold for treating states as degnerate
   RTIME   =   -0.100 relaxation time in fs
  (WPLASMAI=    0.000 imaginary part of plasma frequency in eV, 0.658/RTIME)
   DFIELD  = 0.0000000 0.0000000 0.0000000 field for delta impulse in time
 
  Optional k-point grid parameters
   LKPOINTS_OPT  =     F    use optional k-point grid
   KPOINTS_OPT_MODE=     1    mode for optional k-point grid
 
 Orbital magnetization related:
   ORBITALMAG=     F  switch on orbital magnetization
   LCHIMAG   =     F  perturbation theory with respect to B field
   DQ        =  0.001000  dq finite difference perturbation B field
   LLRAUG    =     F  two centre corrections for induced B field



--------------------------------------------------------------------------------------------------------


 Static calculation
 charge density and potential will be updated during run
 non-spin polarized calculation
 Variant of blocked Davidson
 Davidson routine will perform the subspace rotation
 perform sub-space diagonalisation
    after iterative eigenvector-optimisation
 modified Broyden-mixing scheme, WC =      100.0
 initial mixing is a Kerker type mixing with AMIX =  0.4000 and BMIX =      1.0000
 Hartree-type preconditioning will be used
 using additional bands           56
 reciprocal scheme for non local part
 use partial core corrections
 calculate Harris-corrections to forces 
   (improved forces if not selfconsistent)
 use gradient corrections 
 use of overlap-Matrix (Vanderbilt PP)
 Gauss-broadening in eV      SIGMA  =   0.03


--------------------------------------------------------------------------------------------------------


  energy-cutoff  :      520.00
  volume of cell :      312.99
      direct lattice vectors                 reciprocal lattice vectors
     3.805796467 -6.591832844  0.000000000     0.131378544 -0.075851438  0.000000000
     3.805796467  6.591832844  0.000000000     0.131378544  0.075851438  0.000000000
     0.000000000  0.000000000  6.237981630     0.000000000  0.000000000  0.160308263

  length of vectors
     7.611592934  7.611592934  6.237981630     0.151702876  0.151702876  0.160308263


 
 k-points in units of 2pi/SCALE and weight: Automatic kpoint scheme                 
   0.00000000  0.00000000  0.00000000       0.028
   0.04379285 -0.02528381  0.00000000       0.167
   0.08758570  0.00000000  0.00000000       0.056
   0.00000000  0.00000000  0.04007707       0.056
   0.04379285 -0.02528381  0.04007707       0.333
   0.08758570  0.00000000  0.04007707       0.111
   0.00000000  0.00000000  0.08015413       0.028
   0.04379285 -0.02528381  0.08015413       0.167
   0.08758570  0.00000000  0.08015413       0.056
 
 k-points in reciprocal lattice and weights: Automatic kpoint scheme                 
   0.00000000  0.00000000  0.00000000       0.028
   0.33333333 -0.00000000  0.00000000       0.167
   0.33333333  0.33333333  0.00000000       0.056
   0.00000000  0.00000000  0.25000000       0.056
   0.33333333 -0.00000000  0.25000000       0.333
   0.33333333  0.33333333  0.25000000       0.111
   0.00000000  0.00000000  0.50000000       0.028
   0.33333333 -0.00000000  0.50000000       0.167
   0.33333333  0.33333333  0.50000000       0.056
 
 position of ions in fractional coordinates (direct lattice) 
   0.16666667  0.33333333  0.00031151
   0.66666667  0.33333333  0.00031151
   0.16666667  0.83333333  0.00031151
   0.66666667  0.83333333  0.00031151
   0.33333333  0.16666667  0.50031151
   0.83333333  0.16666667  0.50031151
   0.33333333  0.66666667  0.50031151
   0.83333333  0.66666667  0.50031151
   0.16666667  0.33333333  0.37468849
   0.66666667  0.33333333  0.37468849
   0.16666667  0.83333333  0.37468849
   0.66666667  0.83333333  0.37468849
   0.33333333  0.16666667  0.87468849
   0.83333333  0.16666667  0.87468849
   0.33333333  0.66666667  0.87468849
   0.83333333  0.66666667  0.87468849
 
 position of ions in cartesian coordinates  (Angst):
   1.90289823  1.09863881  0.00194318
   3.80579647 -2.19727761  0.00194318
   3.80579647  4.39455523  0.00194318
   5.70869470  1.09863881  0.00194318
   1.90289823 -1.09863881  3.12093399
   3.80579647 -4.39455523  3.12093399
   3.80579647  2.19727761  3.12093399
   5.70869470 -1.09863881  3.12093399
   1.90289823  1.09863881  2.33729993
   3.80579647 -2.19727761  2.33729993
   3.80579647  4.39455523  2.33729993
   5.70869470  1.09863881  2.33729993
   1.90289823 -1.09863881  5.45629075
   3.80579647 -4.39455523  5.45629075
   3.80579647  2.19727761  5.45629075
   5.70869470 -1.09863881  5.45629075
 


--------------------------------------------------------------------------------------------------------


 k-point   1 :   0.0000 0.0000 0.0000  plane waves:    8393
 k-point   2 :   0.3333-0.0000 0.0000  plane waves:    8448
 k-point   3 :   0.3333 0.3333 0.0000  plane waves:    8424
 k-point   4 :   0.0000 0.0000 0.2500  plane waves:    8447
 k-point   5 :   0.3333-0.0000 0.2500  plane waves:    8420
 k-point   6 :   0.3333 0.3333 0.2500  plane waves:    8433
 k-point   7 :   0.0000 0.0000 0.5000  plane waves:    8424
 k-point   8 :   0.3333-0.0000 0.5000  plane waves:    8410
 k-point   9 :   0.3333 0.3333 0.5000  plane waves:    8484

 maximum and minimum number of plane-waves per node :      8484     8393

 maximum number of plane-waves:      8484
 maximum index in each direction: 
   IXMAX=   14   IYMAX=   14   IZMAX=   11
   IXMIN=  -14   IYMIN=  -14   IZMIN=  -12


 serial   3D FFT for wavefunctions
 parallel 3D FFT for charge:
    minimum data exchange during FFTs selected (reduces bandwidth)


 total amount of memory used by VASP MPI-rank0    66801. kBytes
=======================================================================

   base      :      30000. kBytes
   nonl-proj :      24242. kBytes
   fftplans  :       1507. kBytes
   grid      :       8279. kBytes
   one-center:        248. kBytes
   wavefun   :       2525. kBytes
 
     INWAV:  cpu time      0.0000: real time      0.0000
 Broyden mixing: mesh for mixing (old mesh)
   NGX = 29   NGY = 29   NGZ = 23
  (NGX  =120   NGY  =120   NGZ  = 96)
  gives a total of  19343 points

 initial charge density was supplied:
 charge density of overlapping atoms calculated
 number of electron     144.0000000 magnetization 
 keeping initial charge density in first step


--------------------------------------------------------------------------------------------------------


 Maximum index for augmentation-charges          129 (set IRDMAX)


--------------------------------------------------------------------------------------------------------


 First call to EWALD:  gamma=   0.261
 Maximum number of real-space cells 3x 3x 3
 Maximum number of reciprocal cells 3x 3x 3

    FEWALD:  cpu time      0.0012: real time      0.0012


--------------------------------------- Iteration      1(   1)  ---------------------------------------


    POTLOK:  cpu time      1.1629: real time      1.2005
    SETDIJ:  cpu time      0.0087: real time      0.0120
     EDDAV:  cpu time      3.7789: real time      3.9075
       DOS:  cpu time      0.0024: real time      0.0052
    --------------------------------------------
      LOOP:  cpu time      4.9530: real time      5.1252

 eigenvalue-minimisations  :  2304
 total energy-change (2. order) : 0.7183899E+03  (-0.6882705E+04)
 number of electron     144.0000000 magnetization 
 augmentation part      144.0000000 magnetization 

 Free energy of the ion-electron system (eV)
  ---------------------------------------------------
  alpha Z        PSCENC =       578.06889798
  Ewald energy   TEWEN  =    -10043.44310003
  -Hartree energ DENC   =     -5519.63377780
  -exchange      EXHF   =         0.00000000
  -V(xc)+E(xc)   XCENC  =       555.14180497
  PAW double counting   =     13381.70627085   -14776.70468882
  entropy T*S    EENTRO =        -0.00362166
  eigenvalues    EBANDS =       338.03401047
  atomic energy  EATOM  =     16205.22408104
  Solvation  Ediel_sol  =         0.00000000
  ---------------------------------------------------
  free energy    TOTEN  =       718.38987700 eV

  energy without entropy =      718.39349865  energy(sigma->0) =      718.39168783


--------------------------------------------------------------------------------------------------------




--------------------------------------- Iteration      1(   2)  ---------------------------------------


     EDDAV:  cpu time      2.9429: real time      2.9465
       DOS:  cpu time      0.0004: real time      0.0004
    --------------------------------------------
      LOOP:  cpu time      2.9433: real time      2.9469

 eigenvalue-minimisations  :  2752
 total energy-change (2. order) :-0.7314400E+03  (-0.6943162E+03)
 number of electron     144.0000000 magnetization 
 augmentation part      144.0000000 magnetization 

 Free energy of the ion-electron system (eV)
  ---------------------------------------------------
  alpha Z        PSCENC =       578.06889798
  Ewald energy   TEWEN  =    -10043.44310003
  -Hartree energ DENC   =     -5519.63377780
  -exchange      EXHF   =         0.00000000
  -V(xc)+E(xc)   XCENC  =       555.14180497
  PAW double counting   =     13381.70627085   -14776.70468882
  entropy T*S    EENTRO =        -0.00000000
  eigenvalues    EBANDS =      -393.40963814
  atomic energy  EATOM  =     16205.22408104
  Solvation  Ediel_sol  =         0.00000000
  ---------------------------------------------------
  free energy    TOTEN  =       -13.05014996 eV

  energy without entropy =      -13.05014996  energy(sigma->0) =      -13.05014996


--------------------------------------------------------------------------------------------------------




--------------------------------------- Iteration      1(   3)  ---------------------------------------


     EDDAV:  cpu time      3.4934: real time      3.4960
       DOS:  cpu time      0.0004: real time      0.0004
    --------------------------------------------
      LOOP:  cpu time      3.4939: real time      3.4964

 eigenvalue-minimisations  :  3136
 total energy-change (2. order) :-0.4462037E+02  (-0.4448020E+02)
 number of electron     144.0000000 magnetization 
 augmentation part      144.0000000 magnetization 

 Free energy of the ion-electron system (eV)
  ---------------------------------------------------
  alpha Z        PSCENC =       578.06889798
  Ewald energy   TEWEN  =    -10043.44310003
  -Hartree energ DENC   =     -5519.63377780
  -exchange      EXHF   =         0.00000000
  -V(xc)+E(xc)   XCENC  =       555.14180497
  PAW double counting   =     13381.70627085   -14776.70468882
  entropy T*S    EENTRO =        -0.00000000
  eigenvalues    EBANDS =      -438.03000684
  atomic energy  EATOM  =     16205.22408104
  Solvation  Ediel_sol  =         0.00000000
  ---------------------------------------------------
  free energy    TOTEN  =       -57.67051866 eV

  energy without entropy =      -57.67051866  energy(sigma->0) =      -57.67051866


--------------------------------------------------------------------------------------------------------




--------------------------------------- Iteration      1(   4)  ---------------------------------------


     EDDAV:  cpu time      2.4805: real time      2.4814
       DOS:  cpu time      0.0004: real time      0.0004
    --------------------------------------------
      LOOP:  cpu time      2.4809: real time      2.4818

 eigenvalue-minimisations  :  2816
 total energy-change (2. order) :-0.4350738E+00  (-0.4350248E+00)
 number of electron     144.0000000 magnetization 
 augmentation part      144.0000000 magnetization 

 Free energy of the ion-electron system (eV)
  ---------------------------------------------------
  alpha Z        PSCENC =       578.06889798
  Ewald energy   TEWEN  =    -10043.44310003
  -Hartree energ DENC   =     -5519.63377780
  -exchange      EXHF   =         0.00000000
  -V(xc)+E(xc)   XCENC  =       555.14180497
  PAW double counting   =     13381.70627085   -14776.70468882
  entropy T*S    EENTRO =        -0.00000000
  eigenvalues    EBANDS =      -438.46508064
  atomic energy  EATOM  =     16205.22408104
  Solvation  Ediel_sol  =         0.00000000
  ---------------------------------------------------
  free energy    TOTEN  =       -58.10559245 eV

  energy without entropy =      -58.10559245  energy(sigma->0) =      -58.10559245


--------------------------------------------------------------------------------------------------------




--------------------------------------- Iteration      1(   5)  ---------------------------------------


     EDDAV:  cpu time      2.7829: real time      2.7838
       DOS:  cpu time      0.0004: real time      0.0004
    CHARGE:  cpu time      0.0782: real time      0.1073
    MIXING:  cpu time      0.0032: real time      0.0044
    --------------------------------------------
      LOOP:  cpu time      2.8647: real time      2.8960

 eigenvalue-minimisations  :  3072
 total energy-change (2. order) :-0.5454427E-02  (-0.5454369E-02)
 number of electron     143.9999995 magnetization 
 augmentation part       56.9646524 magnetization 

 Broyden mixing:
  rms(total) = 0.19745E+01    rms(broyden)= 0.19745E+01
  rms(prec ) = 0.24249E+01
  weight for this iteration     100.00

 Free energy of the ion-electron system (eV)
  ---------------------------------------------------
  alpha Z        PSCENC =       578.06889798
  Ewald energy   TEWEN  =    -10043.44310003
  -Hartree energ DENC   =     -5519.63377780
  -exchange      EXHF   =         0.00000000
  -V(xc)+E(xc)   XCENC  =       555.14180497
  PAW double counting   =     13381.70627085   -14776.70468882
  entropy T*S    EENTRO =        -0.00000000
  eigenvalues    EBANDS =      -438.47053507
  atomic energy  EATOM  =     16205.22408104
  Solvation  Ediel_sol  =         0.00000000
  ---------------------------------------------------
  free energy    TOTEN  =       -58.11104688 eV

  energy without entropy =      -58.11104688  energy(sigma->0) =      -58.11104688


--------------------------------------------------------------------------------------------------------




--------------------------------------- Iteration      1(   6)  ---------------------------------------


    POTLOK:  cpu time      0.0145: real time      0.0145
    SETDIJ:  cpu time      0.0024: real time      0.0024
     EDDAV:  cpu time      3.4374: real time      3.4384
       DOS:  cpu time      0.0004: real time      0.0004
    CHARGE:  cpu time      0.0785: real time      0.0787
    MIXING:  cpu time      0.0013: real time      0.0083
    --------------------------------------------
      LOOP:  cpu time      3.5346: real time      3.5428

 eigenvalue-minimisations  :  3840
 total energy-change (2. order) : 0.3266321E+01  (-0.5847641E+00)
 number of electron     143.9999995 magnetization 
 augmentation part       57.9059284 magnetization 

 Broyden mixing:
  rms(total) = 0.15424E+01    rms(broyden)= 0.15424E+01
  rms(prec ) = 0.16107E+01
  weight for this iteration     100.00

 eigenvalues of (default mixing * dielectric matrix)
  average eigenvalue GAMMA=   2.0406
  2.0406

 Free energy of the ion-electron system (eV)
  ---------------------------------------------------
  alpha Z        PSCENC =       578.06889798
  Ewald energy   TEWEN  =    -10043.44310003
  -Hartree energ DENC   =     -5466.31901463
  -exchange      EXHF   =         0.00000000
  -V(xc)+E(xc)   XCENC  =       555.00280298
  PAW double counting   =     14480.55718463   -15856.36249053
  entropy T*S    EENTRO =        -0.00000000
  eigenvalues    EBANDS =      -507.57308745
  atomic energy  EATOM  =     16205.22408104
  Solvation  Ediel_sol  =         0.00000000
  ---------------------------------------------------
  free energy    TOTEN  =       -54.84472601 eV

  energy without entropy =      -54.84472601  energy(sigma->0) =      -54.84472601


--------------------------------------------------------------------------------------------------------




--------------------------------------- Iteration      1(   7)  ---------------------------------------


    POTLOK:  cpu time      0.0170: real time      0.0170
    SETDIJ:  cpu time      0.0025: real time      0.0025
     EDDAV:  cpu time      2.4642: real time      2.4651
       DOS:  cpu time      0.0004: real time      0.0004
    CHARGE:  cpu time      0.0752: real time      0.0753
    MIXING:  cpu time      0.0007: real time      0.0013
    --------------------------------------------
      LOOP:  cpu time      2.5600: real time      2.5615

 eigenvalue-minimisations  :  2944
 total energy-change (2. order) : 0.1718819E+00  (-0.2188404E+00)
 number of electron     143.9999995 magnetization 
 augmentation part       57.7513881 magnetization 

 Broyden mixing:
  rms(total) = 0.69207E+00    rms(broyden)= 0.69207E+00
  rms(prec ) = 0.71366E+00
  weight for this iteration     100.00

 eigenvalues of (default mixing * dielectric matrix)
  average eigenvalue GAMMA=   1.7304
  0.9186  2.5422

 Free energy of the ion-electron system (eV)
  ---------------------------------------------------
  alpha Z        PSCENC =       578.06889798
  Ewald energy   TEWEN  =    -10043.44310003
  -Hartree energ DENC   =     -5477.71298244
  -exchange      EXHF   =         0.00000000
  -V(xc)+E(xc)   XCENC  =       556.74577261
  PAW double counting   =     16069.56764756   -17465.74752431
  entropy T*S    EENTRO =        -0.00000000
  eigenvalues    EBANDS =      -477.37563650
  atomic energy  EATOM  =     16205.22408104
  Solvation  Ediel_sol  =         0.00000000
  ---------------------------------------------------
  free energy    TOTEN  =       -54.67284410 eV

  energy without entropy =      -54.67284410  energy(sigma->0) =      -54.67284410


--------------------------------------------------------------------------------------------------------




--------------------------------------- Iteration      1(   8)  ---------------------------------------


    POTLOK:  cpu time      0.0139: real time      0.0139
    SETDIJ:  cpu time      0.0024: real time      0.0024
     EDDAV:  cpu time      2.5114: real time      2.5124
       DOS:  cpu time      0.0004: real time      0.0004
    CHARGE:  cpu time      0.0762: real time      0.0762
    MIXING:  cpu time      0.0007: real time      0.0019
    --------------------------------------------
      LOOP:  cpu time      2.6052: real time      2.6073

 eigenvalue-minimisations  :  3008
 total energy-change (2. order) : 0.3033782E-02  (-0.4975968E-02)
 number of electron     143.9999995 magnetization 
 augmentation part       57.7822076 magnetization 

 Broyden mixing:
  rms(total) = 0.12730E+00    rms(broyden)= 0.12730E+00
  rms(prec ) = 0.14072E+00
  weight for this iteration     100.00

 eigenvalues of (default mixing * dielectric matrix)
  average eigenvalue GAMMA=   1.5589
  2.4383  0.9426  1.2956

 Free energy of the ion-electron system (eV)
  ---------------------------------------------------
  alpha Z        PSCENC =       578.06889798
  Ewald energy   TEWEN  =    -10043.44310003
  -Hartree energ DENC   =     -5469.13198274
  -exchange      EXHF   =         0.00000000
  -V(xc)+E(xc)   XCENC  =       556.76877954
  PAW double counting   =     17278.70156559   -18679.30319938
  entropy T*S    EENTRO =        -0.00000000
  eigenvalues    EBANDS =      -481.55485231
  atomic energy  EATOM  =     16205.22408104
  Solvation  Ediel_sol  =         0.00000000
  ---------------------------------------------------
  free energy    TOTEN  =       -54.66981032 eV

  energy without entropy =      -54.66981032  energy(sigma->0) =      -54.66981032


--------------------------------------------------------------------------------------------------------




--------------------------------------- Iteration      1(   9)  ---------------------------------------


    POTLOK:  cpu time      0.0159: real time      0.0199
    SETDIJ:  cpu time      0.0024: real time      0.0024
     EDDAV:  cpu time      2.6769: real time      2.6776
       DOS:  cpu time      0.0004: real time      0.0004
    CHARGE:  cpu time      0.0752: real time      0.0752
    MIXING:  cpu time      0.0006: real time      0.0006
    --------------------------------------------
      LOOP:  cpu time      2.7713: real time      2.7760

 eigenvalue-minimisations  :  3072
 total energy-change (2. order) : 0.8535275E-03  (-0.1391898E-02)
 number of electron     143.9999995 magnetization 
 augmentation part       57.7833132 magnetization 

 Broyden mixing:
  rms(total) = 0.20377E-01    rms(broyden)= 0.20377E-01
  rms(prec ) = 0.25402E-01
  weight for this iteration     100.00

 eigenvalues of (default mixing * dielectric matrix)
  average eigenvalue GAMMA=   1.7523
  2.3969  2.3969  0.9526  1.2627

 Free energy of the ion-electron system (eV)
  ---------------------------------------------------
  alpha Z        PSCENC =       578.06889798
  Ewald energy   TEWEN  =    -10043.44310003
  -Hartree energ DENC   =     -5467.06457653
  -exchange      EXHF   =         0.00000000
  -V(xc)+E(xc)   XCENC  =       556.67175639
  PAW double counting   =     17513.07826779   -18914.33944631
  entropy T*S    EENTRO =        -0.00000000
  eigenvalues    EBANDS =      -482.86483712
  atomic energy  EATOM  =     16205.22408104
  Solvation  Ediel_sol  =         0.00000000
  ---------------------------------------------------
  free energy    TOTEN  =       -54.66895679 eV

  energy without entropy =      -54.66895679  energy(sigma->0) =      -54.66895679


--------------------------------------------------------------------------------------------------------




--------------------------------------- Iteration      1(  10)  ---------------------------------------


    POTLOK:  cpu time      0.0145: real time      0.0165
    SETDIJ:  cpu time      0.0024: real time      0.0024
     EDDAV:  cpu time      2.2631: real time      2.2641
       DOS:  cpu time      0.0004: real time      0.0004
    CHARGE:  cpu time      0.0749: real time      0.0749
    MIXING:  cpu time      0.0006: real time      0.0006
    --------------------------------------------
      LOOP:  cpu time      2.3558: real time      2.3588

 eigenvalue-minimisations  :  2752
 total energy-change (2. order) :-0.1475887E-02  (-0.2649045E-03)
 number of electron     143.9999995 magnetization 
 augmentation part       57.7823080 magnetization 

 Broyden mixing:
  rms(total) = 0.12471E-01    rms(broyden)= 0.12471E-01
  rms(prec ) = 0.15110E-01
  weight for this iteration     100.00

 eigenvalues of (default mixing * dielectric matrix)
  average eigenvalue GAMMA=   1.7633
  2.7473  2.7473  1.4245  0.9487  0.9487

 Free energy of the ion-electron system (eV)
  ---------------------------------------------------
  alpha Z        PSCENC =       578.06889798
  Ewald energy   TEWEN  =    -10043.44310003
  -Hartree energ DENC   =     -5467.64067400
  -exchange      EXHF   =         0.00000000
  -V(xc)+E(xc)   XCENC  =       556.67990360
  PAW double counting   =     17460.34964850   -18861.46168917
  entropy T*S    EENTRO =        -0.00000000
  eigenvalues    EBANDS =      -482.44750061
  atomic energy  EATOM  =     16205.22408104
  Solvation  Ediel_sol  =         0.00000000
  ---------------------------------------------------
  free energy    TOTEN  =       -54.67043267 eV

  energy without entropy =      -54.67043267  energy(sigma->0) =      -54.67043267


--------------------------------------------------------------------------------------------------------




--------------------------------------- Iteration      1(  11)  ---------------------------------------


    POTLOK:  cpu time      0.0136: real time      0.0136
    SETDIJ:  cpu time      0.0024: real time      0.0024
     EDDAV:  cpu time      2.5940: real time      2.5948
       DOS:  cpu time      0.0004: real time      0.0004
    CHARGE:  cpu time      0.0753: real time      0.0754
    MIXING:  cpu time      0.0006: real time      0.0006
    --------------------------------------------
      LOOP:  cpu time      2.6863: real time      2.6873

 eigenvalue-minimisations  :  2944
 total energy-change (2. order) : 0.4123348E-04  (-0.3584405E-04)
 number of electron     143.9999995 magnetization 
 augmentation part       57.7822956 magnetization 

 Broyden mixing:
  rms(total) = 0.36646E-02    rms(broyden)= 0.36646E-02
  rms(prec ) = 0.38223E-02
  weight for this iteration     100.00

 eigenvalues of (default mixing * dielectric matrix)
  average eigenvalue GAMMA=   1.8786
  2.7060  2.6107  2.6107  0.9694  0.9694  1.4058

 Free energy of the ion-electron system (eV)
  ---------------------------------------------------
  alpha Z        PSCENC =       578.06889798
  Ewald energy   TEWEN  =    -10043.44310003
  -Hartree energ DENC   =     -5468.00092665
  -exchange      EXHF   =         0.00000000
  -V(xc)+E(xc)   XCENC  =       556.71375007
  PAW double counting   =     17451.29467031   -18852.53247254
  entropy T*S    EENTRO =        -0.00000000
  eigenvalues    EBANDS =      -481.99529162
  atomic energy  EATOM  =     16205.22408104
  Solvation  Ediel_sol  =         0.00000000
  ---------------------------------------------------
  free energy    TOTEN  =       -54.67039144 eV

  energy without entropy =      -54.67039144  energy(sigma->0) =      -54.67039144


--------------------------------------------------------------------------------------------------------




--------------------------------------- Iteration      1(  12)  ---------------------------------------


    POTLOK:  cpu time      0.0140: real time      0.0140
    SETDIJ:  cpu time      0.0024: real time      0.0024
     EDDAV:  cpu time      2.6496: real time      2.6510
       DOS:  cpu time      0.0004: real time      0.0004
    CHARGE:  cpu time      0.0752: real time      0.0753
    MIXING:  cpu time      0.0006: real time      0.0006
    --------------------------------------------
      LOOP:  cpu time      2.7422: real time      2.7437

 eigenvalue-minimisations  :  3008
 total energy-change (2. order) :-0.1128194E-04  (-0.4377903E-05)
 number of electron     143.9999995 magnetization 
 augmentation part       57.7825730 magnetization 

 Broyden mixing:
  rms(total) = 0.13659E-02    rms(broyden)= 0.13659E-02
  rms(prec ) = 0.14561E-02
  weight for this iteration     100.00

 eigenvalues of (default mixing * dielectric matrix)
  average eigenvalue GAMMA=   1.7524
  2.9964  2.5131  2.5131  1.4152  0.9547  0.9547  0.9195

 Free energy of the ion-electron system (eV)
  ---------------------------------------------------
  alpha Z        PSCENC =       578.06889798
  Ewald energy   TEWEN  =    -10043.44310003
  -Hartree energ DENC   =     -5467.94517285
  -exchange      EXHF   =         0.00000000
  -V(xc)+E(xc)   XCENC  =       556.71166559
  PAW double counting   =     17456.53136554   -18857.82136446
  entropy T*S    EENTRO =        -0.00000000
  eigenvalues    EBANDS =      -481.99677553
  atomic energy  EATOM  =     16205.22408104
  Solvation  Ediel_sol  =         0.00000000
  ---------------------------------------------------
  free energy    TOTEN  =       -54.67040272 eV

  energy without entropy =      -54.67040272  energy(sigma->0) =      -54.67040272


--------------------------------------------------------------------------------------------------------




--------------------------------------- Iteration      1(  13)  ---------------------------------------


    POTLOK:  cpu time      0.0138: real time      0.0138
    SETDIJ:  cpu time      0.0024: real time      0.0024
     EDDAV:  cpu time      2.5920: real time      2.5928
       DOS:  cpu time      0.0004: real time      0.0004
    CHARGE:  cpu time      0.0748: real time      0.0748
    MIXING:  cpu time      0.0006: real time      0.0006
    --------------------------------------------
      LOOP:  cpu time      2.6840: real time      2.6850

 eigenvalue-minimisations  :  3008
 total energy-change (2. order) :-0.1322658E-05  (-0.2120892E-06)
 number of electron     143.9999995 magnetization 
 augmentation part       57.7824682 magnetization 

 Broyden mixing:
  rms(total) = 0.55018E-03    rms(broyden)= 0.55018E-03
  rms(prec ) = 0.57851E-03
  weight for this iteration     100.00

 eigenvalues of (default mixing * dielectric matrix)
  average eigenvalue GAMMA=   1.7462
  2.8870  2.5195  2.1117  2.1117  1.4399  1.0056  0.9761  0.9178

 Free energy of the ion-electron system (eV)
  ---------------------------------------------------
  alpha Z        PSCENC =       578.06889798
  Ewald energy   TEWEN  =    -10043.44310003
  -Hartree energ DENC   =     -5467.97799578
  -exchange      EXHF   =         0.00000000
  -V(xc)+E(xc)   XCENC  =       556.71188443
  PAW double counting   =     17452.96125641   -18854.24266717
  entropy T*S    EENTRO =        -0.00000000
  eigenvalues    EBANDS =      -481.97276091
  atomic energy  EATOM  =     16205.22408104
  Solvation  Ediel_sol  =         0.00000000
  ---------------------------------------------------
  free energy    TOTEN  =       -54.67040405 eV

  energy without entropy =      -54.67040405  energy(sigma->0) =      -54.67040405


--------------------------------------------------------------------------------------------------------




--------------------------------------- Iteration      1(  14)  ---------------------------------------


    POTLOK:  cpu time      0.0136: real time      0.0136
    SETDIJ:  cpu time      0.0024: real time      0.0024
     EDDAV:  cpu time      2.6857: real time      2.6866
       DOS:  cpu time      0.0004: real time      0.0004
    CHARGE:  cpu time      0.0733: real time      0.0734
    MIXING:  cpu time      0.0006: real time      0.0006
    --------------------------------------------
      LOOP:  cpu time      2.7761: real time      2.7771

 eigenvalue-minimisations  :  3008
 total energy-change (2. order) : 0.3007626E-06  (-0.3864177E-07)
 number of electron     143.9999995 magnetization 
 augmentation part       57.7824961 magnetization 

 Broyden mixing:
  rms(total) = 0.19696E-03    rms(broyden)= 0.19696E-03
  rms(prec ) = 0.22369E-03
  weight for this iteration     100.00

 eigenvalues of (default mixing * dielectric matrix)
  average eigenvalue GAMMA=   1.7962
  3.3611  2.6322  2.3935  2.3935  1.4339  1.0303  1.0303  0.9306  0.9602

 Free energy of the ion-electron system (eV)
  ---------------------------------------------------
  alpha Z        PSCENC =       578.06889798
  Ewald energy   TEWEN  =    -10043.44310003
  -Hartree energ DENC   =     -5467.97332775
  -exchange      EXHF   =         0.00000000
  -V(xc)+E(xc)   XCENC  =       556.71172063
  PAW double counting   =     17454.22394863   -18855.50021791
  entropy T*S    EENTRO =        -0.00000000
  eigenvalues    EBANDS =      -481.98240634
  atomic energy  EATOM  =     16205.22408104
  Solvation  Ediel_sol  =         0.00000000
  ---------------------------------------------------
  free energy    TOTEN  =       -54.67040375 eV

  energy without entropy =      -54.67040375  energy(sigma->0) =      -54.67040375


--------------------------------------------------------------------------------------------------------




--------------------------------------- Iteration      1(  15)  ---------------------------------------


    POTLOK:  cpu time      0.0136: real time      0.0136
    SETDIJ:  cpu time      0.0024: real time      0.0024
     EDDAV:  cpu time      2.2652: real time      2.2661
       DOS:  cpu time      0.0004: real time      0.0004
    CHARGE:  cpu time      0.0756: real time      0.0756
    MIXING:  cpu time      0.0006: real time      0.0006
    --------------------------------------------
      LOOP:  cpu time      2.3579: real time      2.3588

 eigenvalue-minimisations  :  2688
 total energy-change (2. order) :-0.1030112E-06  (-0.2688834E-07)
 number of electron     143.9999995 magnetization 
 augmentation part       57.7824802 magnetization 

 Broyden mixing:
  rms(total) = 0.45370E-04    rms(broyden)= 0.45370E-04
  rms(prec ) = 0.52358E-04
  weight for this iteration     100.00

 eigenvalues of (default mixing * dielectric matrix)
  average eigenvalue GAMMA=   1.6754
  3.2616  2.6605  2.3405  2.3405  1.4353  1.0704  1.0704  0.9403  0.9427  0.6914

 Free energy of the ion-electron system (eV)
  ---------------------------------------------------
  alpha Z        PSCENC =       578.06889798
  Ewald energy   TEWEN  =    -10043.44310003
  -Hartree energ DENC   =     -5467.98102566
  -exchange      EXHF   =         0.00000000
  -V(xc)+E(xc)   XCENC  =       556.71186271
  PAW double counting   =     17454.07058738   -18855.34732351
  entropy T*S    EENTRO =        -0.00000000
  eigenvalues    EBANDS =      -481.97438376
  atomic energy  EATOM  =     16205.22408104
  Solvation  Ediel_sol  =         0.00000000
  ---------------------------------------------------
  free energy    TOTEN  =       -54.67040385 eV

  energy without entropy =      -54.67040385  energy(sigma->0) =      -54.67040385


--------------------------------------------------------------------------------------------------------




--------------------------------------- Iteration      1(  16)  ---------------------------------------


    POTLOK:  cpu time      0.0139: real time      0.0139
    SETDIJ:  cpu time      0.0024: real time      0.0024
     EDDAV:  cpu time      3.0519: real time      3.0529
       DOS:  cpu time      0.0004: real time      0.0004
    CHARGE:  cpu time      0.0750: real time      0.0750
    MIXING:  cpu time      0.0009: real time      0.0013
    --------------------------------------------
      LOOP:  cpu time      3.1444: real time      3.1459

 eigenvalue-minimisations  :  2752
 total energy-change (2. order) :-0.3180139E-07  (-0.5259100E-09)
 number of electron     143.9999995 magnetization 
 augmentation part       57.7824847 magnetization 

 Broyden mixing:
  rms(total) = 0.26521E-04    rms(broyden)= 0.26520E-04
  rms(prec ) = 0.28322E-04
  weight for this iteration     100.00

 eigenvalues of (default mixing * dielectric matrix)
  average eigenvalue GAMMA=   1.7808
  3.3432  2.6969  2.6969  2.5530  1.7310  1.5920  1.2236  0.9737  0.9737  0.9429
  0.8622

 Free energy of the ion-electron system (eV)
  ---------------------------------------------------
  alpha Z        PSCENC =       578.06889798
  Ewald energy   TEWEN  =    -10043.44310003
  -Hartree energ DENC   =     -5467.98091340
  -exchange      EXHF   =         0.00000000
  -V(xc)+E(xc)   XCENC  =       556.71187266
  PAW double counting   =     17454.07756357   -18855.35459723
  entropy T*S    EENTRO =        -0.00000000
  eigenvalues    EBANDS =      -481.97420847
  atomic energy  EATOM  =     16205.22408104
  Solvation  Ediel_sol  =         0.00000000
  ---------------------------------------------------
  free energy    TOTEN  =       -54.67040388 eV

  energy without entropy =      -54.67040388  energy(sigma->0) =      -54.67040388


--------------------------------------------------------------------------------------------------------




--------------------------------------- Iteration      1(  17)  ---------------------------------------


    POTLOK:  cpu time      0.0139: real time      0.0139
    SETDIJ:  cpu time      0.0024: real time      0.0024
     EDDAV:  cpu time      2.0625: real time      2.0632
       DOS:  cpu time      0.0004: real time      0.0004
    CHARGE:  cpu time      0.0746: real time      0.0746
    MIXING:  cpu time      0.0007: real time      0.0007
    --------------------------------------------
      LOOP:  cpu time      2.1545: real time      2.1553

 eigenvalue-minimisations  :  2240
 total energy-change (2. order) :-0.2434899E-07  (-0.1257375E-09)
 number of electron     143.9999995 magnetization 
 augmentation part       57.7824816 magnetization 

 Broyden mixing:
  rms(total) = 0.64247E-05    rms(broyden)= 0.64247E-05
  rms(prec ) = 0.79009E-05
  weight for this iteration     100.00

 eigenvalues of (default mixing * dielectric matrix)
  average eigenvalue GAMMA=   1.7200
  3.4082  2.7863  2.4705  2.4705  1.7609  1.5905  1.3199  1.0484  1.0484  0.9578
  0.9578  0.8210

 Free energy of the ion-electron system (eV)
  ---------------------------------------------------
  alpha Z        PSCENC =       578.06889798
  Ewald energy   TEWEN  =    -10043.44310003
  -Hartree energ DENC   =     -5467.98105619
  -exchange      EXHF   =         0.00000000
  -V(xc)+E(xc)   XCENC  =       556.71190053
  PAW double counting   =     17454.11856297   -18855.39586366
  entropy T*S    EENTRO =        -0.00000000
  eigenvalues    EBANDS =      -481.97382655
  atomic energy  EATOM  =     16205.22408104
  Solvation  Ediel_sol  =         0.00000000
  ---------------------------------------------------
  free energy    TOTEN  =       -54.67040390 eV

  energy without entropy =      -54.67040390  energy(sigma->0) =      -54.67040390


--------------------------------------------------------------------------------------------------------




--------------------------------------- Iteration      1(  18)  ---------------------------------------


    POTLOK:  cpu time      0.0138: real time      0.0138
    SETDIJ:  cpu time      0.0024: real time      0.0024
     EDDAV:  cpu time      1.7816: real time      1.7823
       DOS:  cpu time      0.0004: real time      0.0004
    --------------------------------------------
      LOOP:  cpu time      1.7982: real time      1.7988

 eigenvalue-minimisations  :  1856
 total energy-change (2. order) :-0.3590685E-08  (-0.2028230E-10)
 number of electron     143.9999995 magnetization 
 augmentation part       57.7824816 magnetization 

 Free energy of the ion-electron system (eV)
  ---------------------------------------------------
  alpha Z        PSCENC =       578.06889798
  Ewald energy   TEWEN  =    -10043.44310003
  -Hartree energ DENC   =     -5467.98095780
  -exchange      EXHF   =         0.00000000
  -V(xc)+E(xc)   XCENC  =       556.71189921
  PAW double counting   =     17454.10852116   -18855.38569787
  entropy T*S    EENTRO =        -0.00000000
  eigenvalues    EBANDS =      -481.97404760
  atomic energy  EATOM  =     16205.22408104
  Solvation  Ediel_sol  =         0.00000000
  ---------------------------------------------------
  free energy    TOTEN  =       -54.67040391 eV

  energy without entropy =      -54.67040391  energy(sigma->0) =      -54.67040391


--------------------------------------------------------------------------------------------------------




 average (electrostatic) potential at core
  the test charge radii are     0.9521  0.9698
  (the norm of the test charge is              1.0000)
       1 -36.1973       2 -36.1973       3 -36.1973       4 -36.1973       5 -36.1973
       6 -36.1973       7 -36.1973       8 -36.1973       9 -88.5090      10 -88.5090
      11 -88.5090      12 -88.5090      13 -88.5090      14 -88.5090      15 -88.5090
      16 -88.5090
 
 
 
 E-fermi :   2.3363     XC(G=0):  -9.6631     alpha+bet : -8.1250

 Fermi energy:         2.3363136065

 k-point     1 :       0.0000    0.0000    0.0000
  band No.  band energies     occupation 
      1     -11.0195      2.00000
      2     -10.0857      2.00000
      3     -10.0857      2.00000
      4     -10.0857      2.00000
      5     -10.0714      2.00000
      6      -9.7572      2.00000
      7      -9.7572      2.00000
      8      -9.7572      2.00000
      9      -4.1739      2.00000
     10      -4.1593      2.00000
     11      -4.1593      2.00000
     12      -4.1515      2.00000
     13      -4.1515      2.00000
     14      -4.1515      2.00000
     15      -4.0759      2.00000
     16      -4.0759      2.00000
     17      -4.0550      2.00000
     18      -4.0550      2.00000
     19      -4.0550      2.00000
     20      -3.9362      2.00000
     21      -3.9362      2.00000
     22      -3.9362      2.00000
     23      -3.9120      2.00000
     24      -3.9120      2.00000
     25      -3.9120      2.00000
     26      -3.8561      2.00000
     27      -3.8561      2.00000
     28      -3.8561      2.00000
     29      -3.7903      2.00000
     30      -3.7903      2.00000
     31      -3.7903      2.00000
     32      -3.7116      2.00000
     33      -3.7116      2.00000
     34      -3.6445      2.00000
     35      -3.6445      2.00000
     36      -3.6445      2.00000
     37      -3.6325      2.00000
     38      -3.6325      2.00000
     39      -3.5956      2.00000
     40      -3.5956      2.00000
     41      -3.5956      2.00000
     42      -3.5223      2.00000
     43      -3.5223      2.00000
     44      -3.5223      2.00000
     45      -3.5003      2.00000
     46      -3.5003      2.00000
     47      -3.5003      2.00000
     48      -3.4767      2.00000
     49      -3.1649      2.00000
     50      -2.6361      2.00000
     51      -2.6361      2.00000
     52      -2.6361      2.00000
     53      -1.9290      2.00000
     54      -1.9290      2.00000
     55      -1.9290      2.00000
     56      -1.0878      2.00000
     57      -1.0878      2.00000
     58      -1.0878      2.00000
     59      -0.0488      2.00000
     60      -0.0488      2.00000
     61      -0.0488      2.00000
     62       0.5075      2.00000
     63       0.5075      2.00000
     64       0.5075      2.00000
     65       1.3033      2.00000
     66       1.3033      2.00000
     67       1.3155      2.00000
     68       1.3155      2.00000
     69       1.3155      2.00000
     70       2.1273      2.00000
     71       2.2058      2.00000
     72       2.2058      2.00000
     73       4.4287      0.00000
     74       5.3100      0.00000
     75       5.8632      0.00000
     76       5.8632      0.00000
     77       5.8632      0.00000
     78       6.4688      0.00000
     79       6.4688      0.00000
     80       6.4688      0.00000
     81       7.3212      0.00000
     82       7.3212      0.00000
     83       7.3212      0.00000
     84       8.5093      0.00000
     85       8.5093      0.00000
     86       8.7822      0.00000
     87       9.1122      0.00000
     88       9.1122      0.00000
     89       9.1122      0.00000
     90       9.6299      0.00000
     91       9.6299      0.00000
     92       9.6299      0.00000
     93       9.8990      0.00000
     94       9.8990      0.00000
     95      10.5826      0.00000
     96      10.5826      0.00000
     97      10.5826      0.00000
     98      11.2864      0.00000
     99      11.2864      0.00000
    100      11.2864      0.00000
    101      11.4950      0.00000
    102      12.2456      0.00000
    103      12.2456      0.00000
    104      13.5023      0.00000
    105      13.7405      0.00000
    106      13.7405      0.00000
    107      13.7405      0.00000
    108      14.2292      0.00000
    109      14.2292      0.00000
    110      14.2292      0.00000
    111      14.4913      0.00000
    112      14.4913      0.00000
    113      14.7631      0.00000
    114      14.7631      0.00000
    115      14.7631      0.00000
    116      14.8492      0.00000
    117      14.9887      0.00000
    118      14.9887      0.00000
    119      14.9887      0.00000
    120      15.7087      0.00000
    121      15.7087      0.00000
    122      15.7087      0.00000
    123      15.8233      0.00000
    124      15.9746      0.00000
    125      15.9746      0.00000
    126      15.9746      0.00000
    127      16.3054      0.00000
    128      16.3054      0.00000

 k-point     2 :       0.3333   -0.0000    0.0000
  band No.  band energies     occupation 
      1     -10.8351      2.00000
      2     -10.3922      2.00000
      3     -10.1001      2.00000
      4     -10.1001      2.00000
      5      -9.9716      2.00000
      6      -9.7934      2.00000
      7      -9.7499      2.00000
      8      -9.7499      2.00000
      9      -4.1738      2.00000
     10      -4.1654      2.00000
     11      -4.1362      2.00000
     12      -4.1319      2.00000
     13      -4.1319      2.00000
     14      -4.1247      2.00000
     15      -4.0759      2.00000
     16      -4.0715      2.00000
     17      -4.0523      2.00000
     18      -4.0419      2.00000
     19      -4.0419      2.00000
     20      -4.0236      2.00000
     21      -3.9432      2.00000
     22      -3.9432      2.00000
     23      -3.9260      2.00000
     24      -3.9123      2.00000
     25      -3.8840      2.00000
     26      -3.8840      2.00000
     27      -3.8299      2.00000
     28      -3.8299      2.00000
     29      -3.7960      2.00000
     30      -3.7924      2.00000
     31      -3.7924      2.00000
     32      -3.7356      2.00000
     33      -3.7159      2.00000
     34      -3.7106      2.00000
     35      -3.7098      2.00000
     36      -3.7098      2.00000
     37      -3.7071      2.00000
     38      -3.6807      2.00000
     39      -3.6807      2.00000
     40      -3.6792      2.00000
     41      -3.6245      2.00000
     42      -3.6076      2.00000
     43      -3.5731      2.00000
     44      -3.5731      2.00000
     45      -3.4197      2.00000
     46      -3.3341      2.00000
     47      -3.3003      2.00000
     48      -3.3003      2.00000
     49      -2.9028      2.00000
     50      -2.5444      2.00000
     51      -2.5444      2.00000
     52      -2.5168      2.00000
     53      -1.6741      2.00000
     54      -1.6741      2.00000
     55      -1.3830      2.00000
     56      -1.0516      2.00000
     57      -1.0516      2.00000
     58      -0.7938      2.00000
     59      -0.6048      2.00000
     60      -0.6048      2.00000
     61       0.0798      2.00000
     62       0.2456      2.00000
     63       0.5992      2.00000
     64       0.5992      2.00000
     65       0.7531      2.00000
     66       0.7531      2.00000
     67       0.8885      2.00000
     68       0.9054      2.00000
     69       1.1379      2.00000
     70       1.5300      2.00000
     71       1.8785      2.00000
     72       1.9792      2.00000
     73       5.5636      0.00000
     74       6.0810      0.00000
     75       6.2579      0.00000
     76       6.4094      0.00000
     77       6.9380      0.00000
     78       6.9380      0.00000
     79       7.1673      0.00000
     80       7.1673      0.00000
     81       7.3256      0.00000
     82       7.3256      0.00000
     83       7.8033      0.00000
     84       7.9997      0.00000
     85       8.9577      0.00000
     86       8.9702      0.00000
     87       9.0166      0.00000
     88       9.2174      0.00000
     89       9.2441      0.00000
     90       9.2441      0.00000
     91       9.3289      0.00000
     92       9.3289      0.00000
     93       9.8171      0.00000
     94      10.4983      0.00000
     95      10.7107      0.00000
     96      10.7125      0.00000
     97      10.7520      0.00000
     98      10.7520      0.00000
     99      10.8853      0.00000
    100      11.3409      0.00000
    101      11.3619      0.00000
    102      11.3619      0.00000
    103      11.8180      0.00000
    104      11.8180      0.00000
    105      11.9320      0.00000
    106      11.9668      0.00000
    107      12.6063      0.00000
    108      13.2696      0.00000
    109      13.2696      0.00000
    110      13.2709      0.00000
    111      13.9225      0.00000
    112      13.9225      0.00000
    113      14.0896      0.00000
    114      14.8496      0.00000
    115      14.9669      0.00000
    116      14.9669      0.00000
    117      15.3911      0.00000
    118      15.5482      0.00000
    119      15.5987      0.00000
    120      15.8351      0.00000
    121      15.8351      0.00000
    122      16.0273      0.00000
    123      16.1901      0.00000
    124      16.1901      0.00000
    125      16.3585      0.00000
    126      16.3585      0.00000
    127      16.6922      0.00000
    128      16.6989      0.00000

 k-point     3 :       0.3333    0.3333    0.0000
  band No.  band energies     occupation 
      1     -10.5178      2.00000
      2     -10.5178      2.00000
      3     -10.5178      2.00000
      4      -9.8394      2.00000
      5      -9.8394      2.00000
      6      -9.8320      2.00000
      7      -9.8320      2.00000
      8      -9.8320      2.00000
      9      -4.1424      2.00000
     10      -4.1327      2.00000
     11      -4.1327      2.00000
     12      -4.1327      2.00000
     13      -4.1127      2.00000
     14      -4.1127      2.00000
     15      -4.1127      2.00000
     16      -4.0800      2.00000
     17      -4.0800      2.00000
     18      -4.0800      2.00000
     19      -4.0007      2.00000
     20      -4.0007      2.00000
     21      -4.0007      2.00000
     22      -3.9449      2.00000
     23      -3.9449      2.00000
     24      -3.9304      2.00000
     25      -3.9304      2.00000
     26      -3.9304      2.00000
     27      -3.8246      2.00000
     28      -3.7553      2.00000
     29      -3.7553      2.00000
     30      -3.7553      2.00000
     31      -3.7516      2.00000
     32      -3.7516      2.00000
     33      -3.7303      2.00000
     34      -3.7303      2.00000
     35      -3.7303      2.00000
     36      -3.7098      2.00000
     37      -3.7098      2.00000
     38      -3.7098      2.00000
     39      -3.6996      2.00000
     40      -3.6800      2.00000
     41      -3.6117      2.00000
     42      -3.6117      2.00000
     43      -3.6117      2.00000
     44      -3.4382      2.00000
     45      -3.4382      2.00000
     46      -3.3625      2.00000
     47      -3.3625      2.00000
     48      -3.3625      2.00000
     49      -2.5473      2.00000
     50      -2.5473      2.00000
     51      -2.5473      2.00000
     52      -2.1217      2.00000
     53      -2.1217      2.00000
     54      -1.6657      2.00000
     55      -0.8513      2.00000
     56      -0.8513      2.00000
     57      -0.8513      2.00000
     58      -0.5128      2.00000
     59      -0.5128      2.00000
     60      -0.5128      2.00000
     61      -0.1322      2.00000
     62      -0.1322      2.00000
     63       0.1085      2.00000
     64       0.1922      2.00000
     65       0.1922      2.00000
     66       0.1922      2.00000
     67       1.3496      2.00000
     68       1.3496      2.00000
     69       1.3496      2.00000
     70       1.4131      2.00000
     71       1.4131      2.00000
     72       1.4131      2.00000
     73       6.4643      0.00000
     74       6.6067      0.00000
     75       6.6067      0.00000
     76       6.6067      0.00000
     77       7.2163      0.00000
     78       7.2163      0.00000
     79       7.2163      0.00000
     80       7.8588      0.00000
     81       7.8588      0.00000
     82       7.8588      0.00000
     83       8.0576      0.00000
     84       8.0576      0.00000
     85       8.0576      0.00000
     86       8.1253      0.00000
     87       8.1253      0.00000
     88       9.4389      0.00000
     89       9.4389      0.00000
     90       9.4389      0.00000
     91       9.7841      0.00000
     92       9.7841      0.00000
     93       9.7841      0.00000
     94      10.0739      0.00000
     95      10.2343      0.00000
     96      10.2343      0.00000
     97      10.7820      0.00000
     98      10.7820      0.00000
     99      10.7820      0.00000
    100      11.1522      0.00000
    101      11.1522      0.00000
    102      11.1522      0.00000
    103      11.7187      0.00000
    104      11.7187      0.00000
    105      12.4429      0.00000
    106      12.4456      0.00000
    107      12.4456      0.00000
    108      12.4456      0.00000
    109      12.5888      0.00000
    110      12.5888      0.00000
    111      12.5888      0.00000
    112      13.6092      0.00000
    113      13.6092      0.00000
    114      14.1320      0.00000
    115      14.9933      0.00000
    116      14.9933      0.00000
    117      14.9933      0.00000
    118      15.2426      0.00000
    119      15.2426      0.00000
    120      15.2426      0.00000
    121      15.6510      0.00000
    122      16.7912      0.00000
    123      16.7912      0.00000
    124      16.7912      0.00000
    125      17.1941      0.00000
    126      17.1941      0.00000
    127      17.1941      0.00000
    128      17.9245      0.00000

 k-point     4 :       0.0000    0.0000    0.2500
  band No.  band energies     occupation 
      1     -10.8996      2.00000
      2     -10.2333      2.00000
      3     -10.0334      2.00000
      4     -10.0334      2.00000
      5     -10.0334      2.00000
      6      -9.8000      2.00000
      7      -9.8000      2.00000
      8      -9.8000      2.00000
      9      -4.1810      2.00000
     10      -4.1696      2.00000
     11      -4.1696      2.00000
     12      -4.1696      2.00000
     13      -4.1509      2.00000
     14      -4.1509      2.00000
     15      -4.0922      2.00000
     16      -4.0922      2.00000
     17      -4.0492      2.00000
     18      -4.0492      2.00000
     19      -4.0492      2.00000
     20      -4.0273      2.00000
     21      -4.0273      2.00000
     22      -4.0273      2.00000
     23      -3.9393      2.00000
     24      -3.8952      2.00000
     25      -3.8952      2.00000
     26      -3.8952      2.00000
     27      -3.8853      2.00000
     28      -3.8853      2.00000
     29      -3.8853      2.00000
     30      -3.7883      2.00000
     31      -3.7883      2.00000
     32      -3.7883      2.00000
     33      -3.6971      2.00000
     34      -3.6971      2.00000
     35      -3.6412      2.00000
     36      -3.6412      2.00000
     37      -3.6412      2.00000
     38      -3.6410      2.00000
     39      -3.6410      2.00000
     40      -3.6091      2.00000
     41      -3.6091      2.00000
     42      -3.6091      2.00000
     43      -3.4888      2.00000
     44      -3.4888      2.00000
     45      -3.4888      2.00000
     46      -3.4702      2.00000
[...]
     34      -3.6644      2.00000
     35      -3.6628      2.00000
     36      -3.6628      2.00000
     37      -3.6616      2.00000
     38      -3.6616      2.00000
     39      -3.6616      2.00000
     40      -3.6616      2.00000
     41      -3.6483      2.00000
     42      -3.6483      2.00000
     43      -3.6211      2.00000
     44      -3.6211      2.00000
     45      -3.4836      2.00000
     46      -3.4836      2.00000
     47      -3.4836      2.00000
     48      -3.4836      2.00000
     49      -2.3813      2.00000
     50      -2.3813      2.00000
     51      -2.3813      2.00000
     52      -2.3813      2.00000
     53      -1.8282      2.00000
     54      -1.8282      2.00000
     55      -0.7969      2.00000
     56      -0.7969      2.00000
     57      -0.1447      2.00000
     58      -0.1447      2.00000
     59      -0.1447      2.00000
     60      -0.1447      2.00000
     61       0.4605      2.00000
     62       0.4605      2.00000
     63       0.7341      2.00000
     64       0.7341      2.00000
     65       0.7341      2.00000
     66       0.7341      2.00000
     67       0.8383      2.00000
     68       0.8383      2.00000
     69       0.8416      2.00000
     70       0.8416      2.00000
     71       1.4067      2.00000
     72       1.4067      2.00000
     73       6.1144      0.00000
     74       6.1144      0.00000
     75       6.4522      0.00000
     76       6.4522      0.00000
     77       6.4522      0.00000
     78       6.4522      0.00000
     79       6.6246      0.00000
     80       6.6246      0.00000
     81       7.8109      0.00000
     82       7.8109      0.00000
     83       7.9587      0.00000
     84       7.9587      0.00000
     85       8.1260      0.00000
     86       8.1260      0.00000
     87       8.1260      0.00000
     88       8.1260      0.00000
     89       9.5718      0.00000
     90       9.5718      0.00000
     91       9.6577      0.00000
     92       9.6577      0.00000
     93       9.7230      0.00000
     94       9.7230      0.00000
     95       9.7230      0.00000
     96       9.7230      0.00000
     97      10.7018      0.00000
     98      10.7018      0.00000
     99      10.7641      0.00000
    100      10.7641      0.00000
    101      11.3130      0.00000
    102      11.3130      0.00000
    103      11.3130      0.00000
    104      11.3130      0.00000
    105      13.3266      0.00000
    106      13.3266      0.00000
    107      13.5040      0.00000
    108      13.5040      0.00000
    109      13.9013      0.00000
    110      13.9013      0.00000
    111      13.9121      0.00000
    112      13.9121      0.00000
    113      13.9121      0.00000
    114      13.9121      0.00000
    115      14.2750      0.00000
    116      14.2750      0.00000
    117      16.0054      0.00000
    118      16.0054      0.00000
    119      16.2579      0.00000
    120      16.2579      0.00000
    121      16.2579      0.00000
    122      16.2579      0.00000
    123      16.8565      0.00000
    124      16.8565      0.00000
    125      16.8565      0.00000
    126      16.8565      0.00000
    127      17.0180      0.00000
    128      17.0180      0.00000

 k-point     9 :       0.3333    0.3333    0.5000
  band No.  band energies     occupation 
      1     -10.1890      2.00000
      2     -10.1890      2.00000
      3     -10.1890      2.00000
      4     -10.1890      2.00000
      5     -10.1890      2.00000
      6     -10.1890      2.00000
      7      -9.8233      2.00000
      8      -9.8233      2.00000
      9      -4.1513      2.00000
     10      -4.1513      2.00000
     11      -4.1513      2.00000
     12      -4.1513      2.00000
     13      -4.1513      2.00000
     14      -4.1513      2.00000
     15      -4.0375      2.00000
     16      -4.0375      2.00000
     17      -4.0374      2.00000
     18      -4.0374      2.00000
     19      -4.0374      2.00000
     20      -4.0374      2.00000
     21      -4.0374      2.00000
     22      -4.0374      2.00000
     23      -3.9977      2.00000
     24      -3.9977      2.00000
     25      -3.9970      2.00000
     26      -3.9970      2.00000
     27      -3.9970      2.00000
     28      -3.9970      2.00000
     29      -3.9970      2.00000
     30      -3.9970      2.00000
     31      -3.7844      2.00000
     32      -3.7844      2.00000
     33      -3.7098      2.00000
     34      -3.7098      2.00000
     35      -3.6643      2.00000
     36      -3.6643      2.00000
     37      -3.6643      2.00000
     38      -3.6643      2.00000
     39      -3.6643      2.00000
     40      -3.6643      2.00000
     41      -3.6291      2.00000
     42      -3.6291      2.00000
     43      -3.6291      2.00000
     44      -3.6291      2.00000
     45      -3.6291      2.00000
     46      -3.6291      2.00000
     47      -3.3335      2.00000
     48      -3.3335      2.00000
     49      -2.5630      2.00000
     50      -2.5630      2.00000
     51      -1.3955      2.00000
     52      -1.3955      2.00000
     53      -1.3955      2.00000
     54      -1.3955      2.00000
     55      -1.3955      2.00000
     56      -1.3955      2.00000
     57      -0.8580      2.00000
     58      -0.8580      2.00000
     59       0.4840      2.00000
     60       0.4840      2.00000
     61       0.4840      2.00000
     62       0.4840      2.00000
     63       0.4840      2.00000
     64       0.4840      2.00000
     65       0.7048      2.00000
     66       0.7048      2.00000
     67       0.7048      2.00000
     68       0.7048      2.00000
     69       0.7048      2.00000
     70       0.7048      2.00000
     71       0.8455      2.00000
     72       0.8455      2.00000
     73       6.7113      0.00000
     74       6.7113      0.00000
     75       6.9117      0.00000
     76       6.9117      0.00000
     77       6.9117      0.00000
     78       6.9117      0.00000
     79       6.9117      0.00000
     80       6.9117      0.00000
     81       8.0500      0.00000
     82       8.0500      0.00000
     83       8.0500      0.00000
     84       8.0500      0.00000
     85       8.0500      0.00000
     86       8.0500      0.00000
     87       8.5533      0.00000
     88       8.5533      0.00000
     89       9.2726      0.00000
     90       9.2726      0.00000
     91       9.2726      0.00000
     92       9.2726      0.00000
     93       9.2726      0.00000
     94       9.2726      0.00000
     95       9.5925      0.00000
     96       9.5925      0.00000
     97      10.5923      0.00000
     98      10.5923      0.00000
     99      10.5923      0.00000
    100      10.5923      0.00000
    101      10.5923      0.00000
    102      10.5923      0.00000
    103      11.9520      0.00000
    104      11.9520      0.00000
    105      12.5459      0.00000
    106      12.5459      0.00000
    107      13.3967      0.00000
    108      13.3967      0.00000
    109      13.3967      0.00000
    110      13.3967      0.00000
    111      13.3967      0.00000
    112      13.3967      0.00000
    113      14.3574      0.00000
    114      14.3574      0.00000
    115      14.3574      0.00000
    116      14.3574      0.00000
    117      14.3574      0.00000
    118      14.3574      0.00000
    119      16.1351      0.00000
    120      16.1351      0.00000
    121      16.9251      0.00000
    122      16.9251      0.00000
    123      16.9251      0.00000
    124      16.9251      0.00000
    125      16.9251      0.00000
    126      16.9251      0.00000
    127      17.6079      0.00000
    128      17.6079      0.00000


--------------------------------------------------------------------------------------------------------


 soft charge-density along one line, spin component           1
         0         1         2         3         4         5         6         7         8         9
 total charge-density along one line
 
 pseudopotential strength for first ion, spin component:           1
 -9.723  -0.000   0.000   0.000  -0.000 -10.091  -0.000   0.000
 -0.000  -9.723   0.000  -0.000   0.000  -0.000 -10.091   0.000
  0.000   0.000  -9.722  -0.000   0.000   0.000   0.000 -10.091
  0.000  -0.000  -0.000  -9.723  -0.000   0.000  -0.000  -0.000
 -0.000   0.000   0.000  -0.000  -9.723  -0.000   0.000   0.000
-10.091  -0.000   0.000   0.000  -0.000 -10.385  -0.000   0.000
 -0.000 -10.091   0.000  -0.000   0.000  -0.000 -10.384   0.000
  0.000   0.000 -10.091  -0.000   0.000   0.000   0.000 -10.384
  0.000  -0.000  -0.000 -10.091  -0.000   0.000  -0.000  -0.000
 -0.000   0.000   0.000  -0.000 -10.091  -0.000   0.000   0.000
 -0.000   0.000  -0.000  -0.000  -0.000  -0.000   0.000  -0.000
 -0.000   0.000  -0.000  -0.000  -0.000  -0.000   0.000  -0.000
 -0.000   0.002  -0.000  -0.000  -0.002  -0.000   0.002  -0.000
 -0.000   0.000  -0.002  -0.000   0.000  -0.000   0.000  -0.002
 -0.002  -0.000   0.000   0.002  -0.000  -0.002  -0.000   0.000
 -0.000   0.002  -0.000  -0.000  -0.002  -0.000   0.002  -0.000
 -0.000   0.000  -0.003  -0.000   0.000  -0.000   0.000  -0.002
 -0.002  -0.000   0.000   0.002  -0.000  -0.002  -0.000   0.000
 total augmentation occupancy for first ion, spin component:           1
  3.598   0.000   0.000  -0.705   0.000  -1.592   0.000   0.000   0.701   0.000  -0.000  -0.000   0.000   0.000  -0.571   0.000
  0.000   3.102  -0.000   0.000  -0.705   0.000  -1.099   0.000   0.000   0.701  -0.000   0.000   0.407  -0.000   0.000  -0.060
 -0.000  -0.000   4.092  -0.000   0.000  -0.000   0.000  -2.081  -0.000  -0.000   0.004   0.000  -0.000  -0.696   0.000   0.000
 -0.705   0.000   0.000   3.102   0.000   0.701   0.000  -0.000  -1.099   0.000  -0.000   0.000   0.000   0.000   0.407   0.000
  0.000  -0.705   0.000   0.000   3.598   0.000   0.701  -0.000   0.000  -1.592   0.000  -0.000  -0.571  -0.000   0.000   0.085
 -1.592   0.000  -0.000   0.701   0.000   1.579   0.000  -0.000  -0.698   0.000  -0.000  -0.000   0.000  -0.000   0.554   0.000
  0.000  -1.099   0.000   0.000   0.701   0.000   1.089  -0.000   0.000  -0.698  -0.000   0.000  -0.395  -0.000   0.000   0.068
 -0.000   0.000  -2.081  -0.000  -0.000  -0.000  -0.000   2.062   0.000   0.000  -0.005  -0.000   0.000   0.675   0.000  -0.000
  0.701   0.000   0.000  -1.099   0.000  -0.698   0.000   0.000   1.089   0.000   0.000  -0.000   0.000  -0.000  -0.395   0.000
 -0.000   0.701  -0.000   0.000  -1.592   0.000  -0.698   0.000   0.000   1.579  -0.000  -0.000   0.554   0.000   0.000  -0.095
  0.000  -0.000   0.004   0.000  -0.000   0.000  -0.000  -0.005  -0.000  -0.000   2.515  -0.590  -0.000  -0.002   0.000   0.000
  0.000   0.000   0.000  -0.000  -0.000   0.000  -0.000  -0.000  -0.000   0.000  -0.590   0.164  -0.000   0.001  -0.000   0.000
  0.000   0.407  -0.000   0.000  -0.571   0.000  -0.395   0.000  -0.000   0.554   0.000  -0.000   0.367   0.000   0.000  -0.063
  0.000   0.000  -0.696  -0.000  -0.000   0.000   0.000   0.675   0.000   0.000  -0.002   0.001  -0.000   0.367   0.000   0.000
 -0.571   0.000   0.000   0.407   0.000   0.554  -0.000  -0.000  -0.395   0.000   0.000   0.000   0.000   0.000   0.367   0.000
  0.000  -0.060   0.000   0.000   0.085   0.000   0.068  -0.000   0.000  -0.095   0.000   0.000  -0.063  -0.000   0.000   0.013
 -0.000   0.000   0.103   0.000   0.000   0.000   0.000  -0.116   0.000  -0.000   0.001  -0.000  -0.000  -0.063  -0.000  -0.000
  0.085   0.000   0.000  -0.060   0.000  -0.095   0.000   0.000   0.068   0.000  -0.000  -0.000   0.000  -0.000  -0.063   0.000


------------------------ aborting loop because EDIFF is reached ----------------------------------------


    CHARGE:  cpu time      0.0742: real time      0.0742
    FORLOC:  cpu time      0.0012: real time      0.0012
    FORNL :  cpu time      0.2201: real time      0.2201
    STRESS:  cpu time      0.6770: real time      0.6772
    FORCOR:  cpu time      0.0119: real time      0.0119
    FORHAR:  cpu time      0.0033: real time      0.0033
    MIXING:  cpu time      0.0007: real time      0.0007
    OFIELD:  cpu time      0.0000: real time      0.0000

  FORCE on cell =-STRESS in cart. coord.  units (eV):
  Direction    XX          YY          ZZ          XY          YZ          ZX
  --------------------------------------------------------------------------------------
  Alpha Z   578.06890   578.06890   578.06890
  Ewald   -3388.37424 -3388.37424 -3266.71373     0.00000    -0.00000    -0.00000
  Hartree  1793.99307  1793.99307  1879.99494     0.00000     0.00000    -0.00000
  E(xc)    -748.98149  -748.98145  -748.81719    -0.00000    -0.00000    -0.00000
  Local      47.79447    47.79567  -158.81019    -0.00000    -0.00000    -0.00000
  n-local   317.99510   322.42185   319.89649     3.83371     0.09013    -0.15617
  augment   186.43538   186.43465   186.67479     0.00000    -0.00000     0.00000
  Kinetic  1211.13103  1220.29908  1214.79187     7.93980    -0.04050     0.07016
  Fock        0.00000     0.00000     0.00000     0.00000     0.00000     0.00000
  -------------------------------------------------------------------------------------
  Total       4.85987     4.85987     5.08587     0.00000    -0.00000     0.00000
  in kB      24.87767    24.87767    26.03457     0.00000    -0.00000     0.00000
  external pressure =       25.26 kB  Pullay stress =        0.00 kB


 VOLUME and BASIS-vectors are now :
 -----------------------------------------------------------------------------
  energy-cutoff  :      520.00
  volume of cell :      312.99
      direct lattice vectors                 reciprocal lattice vectors
     3.805796467 -6.591832844  0.000000000     0.131378544 -0.075851438  0.000000000
     3.805796467  6.591832844  0.000000000     0.131378544  0.075851438  0.000000000
     0.000000000  0.000000000  6.237981630     0.000000000  0.000000000  0.160308263

  length of vectors
     7.611592934  7.611592934  6.237981630     0.151702876  0.151702876  0.160308263


 FORCES acting on ions
    electron-ion (+dipol)            ewald-force                    non-local-force                 convergence-correction
 -----------------------------------------------------------------------------------------------
   -.243E-07 -.171E-06 -.391E+01   0.852E-13 0.204E-10 0.385E+01   -.889E-17 0.867E-18 0.565E-01   0.362E-12 0.703E-11 0.153E-06
   -.243E-07 -.171E-06 -.391E+01   0.853E-13 0.204E-10 0.385E+01   0.173E-17 0.434E-17 0.565E-01   -.248E-15 0.731E-11 0.153E-06
   -.243E-07 -.171E-06 -.391E+01   0.853E-13 0.204E-10 0.385E+01   -.607E-17 -.867E-17 0.565E-01   0.253E-12 0.695E-11 0.153E-06
   -.243E-07 -.171E-06 -.391E+01   0.842E-13 0.204E-10 0.385E+01   -.781E-17 0.000E+00 0.565E-01   -.909E-13 0.706E-11 0.153E-06
   -.243E-07 0.171E-06 -.391E+01   0.542E-13 -.204E-10 0.385E+01   -.304E-17 -.217E-17 0.565E-01   0.120E-12 -.724E-11 0.153E-06
   -.243E-07 0.171E-06 -.391E+01   0.567E-13 -.204E-10 0.385E+01   -.911E-17 0.217E-17 0.565E-01   0.139E-12 -.704E-11 0.153E-06
   -.243E-07 0.171E-06 -.391E+01   0.537E-13 -.205E-10 0.385E+01   -.217E-17 0.434E-18 0.565E-01   -.176E-12 -.731E-11 0.153E-06
   -.242E-07 0.171E-06 -.391E+01   0.553E-13 -.204E-10 0.385E+01   -.304E-17 0.477E-17 0.565E-01   -.164E-12 -.729E-11 0.153E-06
   -.105E-06 -.321E-06 0.382E+01   -.737E-13 0.190E-10 -.385E+01   -.694E-17 0.104E-16 0.324E-01   0.102E-12 0.731E-11 0.232E-05
   -.105E-06 -.321E-06 0.382E+01   -.782E-13 0.190E-10 -.385E+01   -.113E-16 0.347E-17 0.324E-01   -.509E-13 0.746E-11 0.232E-05
   -.105E-06 -.321E-06 0.382E+01   -.782E-13 0.190E-10 -.385E+01   0.408E-16 0.208E-16 0.324E-01   0.566E-13 0.736E-11 0.232E-05
   -.105E-06 -.321E-06 0.382E+01   -.783E-13 0.190E-10 -.385E+01   0.269E-16 0.139E-16 0.324E-01   -.985E-13 0.736E-11 0.232E-05
   -.105E-06 0.321E-06 0.382E+01   -.605E-13 -.189E-10 -.385E+01   0.113E-16 0.173E-16 0.324E-01   0.404E-13 -.732E-11 0.232E-05
   -.105E-06 0.321E-06 0.382E+01   -.604E-13 -.189E-10 -.385E+01   0.252E-16 -.104E-16 0.324E-01   0.994E-13 -.732E-11 0.232E-05
   -.105E-06 0.321E-06 0.382E+01   -.638E-13 -.190E-10 -.385E+01   -.182E-16 0.208E-16 0.324E-01   -.127E-12 -.734E-11 0.232E-05
   -.105E-06 0.321E-06 0.382E+01   -.605E-13 -.190E-10 -.385E+01   -.520E-17 0.208E-16 0.324E-01   -.683E-13 -.745E-11 0.232E-05
 -----------------------------------------------------------------------------------------------
   -.104E-05 -.165E-10 -.709E+00   0.619E-14 0.287E-13 0.151E-13   0.241E-16 0.989E-16 0.711E+00   0.397E-12 -.469E-12 0.198E-04
 
 
 POSITION                                       TOTAL-FORCE (eV/Angst)
 -----------------------------------------------------------------------------------
      1.90290      1.09864      0.00194        -0.000000      0.000000      0.000113
      3.80580     -2.19728      0.00194         0.000000      0.000000      0.000113
      3.80580      4.39456      0.00194        -0.000000     -0.000000      0.000113
      5.70869      1.09864      0.00194        -0.000000     -0.000000      0.000113
      1.90290     -1.09864      3.12093         0.000000     -0.000000      0.000113
      3.80580     -4.39456      3.12093        -0.000000     -0.000000      0.000113
      3.80580      2.19728      3.12093        -0.000000     -0.000000      0.000113
      5.70869     -1.09864      3.12093         0.000000     -0.000000      0.000113
      1.90290      1.09864      2.33730         0.000000     -0.000000     -0.000113
      3.80580     -2.19728      2.33730         0.000000     -0.000000     -0.000113
      3.80580      4.39456      2.33730         0.000000     -0.000000     -0.000113
      5.70869      1.09864      2.33730        -0.000000     -0.000000     -0.000113
      1.90290     -1.09864      5.45629        -0.000000      0.000000     -0.000113
      3.80580     -4.39456      5.45629        -0.000000      0.000000     -0.000113
      3.80580      2.19728      5.45629        -0.000000      0.000000     -0.000113
      5.70869     -1.09864      5.45629        -0.000000      0.000000     -0.000113
 -----------------------------------------------------------------------------------
    total drift:                               -0.000001     -0.000000      0.002358


--------------------------------------------------------------------------------------------------------



  FREE ENERGIE OF THE ION-ELECTRON SYSTEM (eV)
  ---------------------------------------------------
  free  energy   TOTEN  =       -54.67040391 eV

  energy  without entropy=      -54.67040391  energy(sigma->0) =      -54.67040391
 


--------------------------------------------------------------------------------------------------------


    POTLOK:  cpu time      0.0161: real time      0.0161


--------------------------------------------------------------------------------------------------------


 writing wavefunctions
     LOOP+:  cpu time     53.9893: real time     55.0726
    4ORBIT:  cpu time      0.0000: real time      0.0000

 total amount of memory used by VASP MPI-rank0    66801. kBytes
=======================================================================

   base      :      30000. kBytes
   nonl-proj :      24242. kBytes
   fftplans  :       1507. kBytes
   grid      :       8279. kBytes
   one-center:        248. kBytes
   wavefun   :       2525. kBytes
 
  
  
 General timing and accounting informations for this job:
 ========================================================
  
                  Total CPU time used (sec):       57.954
                            User time (sec):       50.039
                          System time (sec):        7.915
                         Elapsed time (sec):       60.275
  
                   Maximum memory used (kb):      213016.
                   Average memory used (kb):          N/A
  
                          Minor page faults:       129755
                          Major page faults:         1756
                 Voluntary context switches:         7604
