nqpoint: 255    
npath: 5      
segment_nqpoint:
- 51
- 51
- 51
- 51
- 51
labels:
- [ '$Gamma$', 'A' ]
- [ 'A', 'H' ]
- [ 'H', 'K' ]
- [ 'K', 'L' ]
- [ 'L', 'M' ]
reciprocal_lattice:
- [   0.25473699,  -0.14707247,   0.00000000 ] # a*
- [   0.25473699,   0.14707247,   0.00000000 ] # b*
- [   0.00000000,   0.00000000,   0.15536554 ] # c*
natom: 4      
lattice:
- [     1.962808775555995,    -3.399684524805040,     0.000000000000000 ] # a
- [     1.962808775555995,     3.399684524805040,     0.000000000000000 ] # b
- [     0.000000000000000,     0.000000000000000,     6.436433838954212 ] # c
points:
- symbol: Zn # 1
  coordinates: [  0.333333333333336,  0.666666666666664,  0.000051921538097 ]
  mass: 65.380000
- symbol: Zn # 2
  coordinates: [  0.666666666666664,  0.333333333333336,  0.500051921538097 ]
  mass: 65.380000
- symbol: S # 3
  coordinates: [  0.333333333333336,  0.666666666666664,  0.374948078461903 ]
  mass: 32.065000
- symbol: S # 4
  coordinates: [  0.666666666666664,  0.333333333333336,  0.874948078461903 ]
  mass: 32.065000

phonon:
- q-position: [    0.0000000,    0.0000000,    0.0000000 ]
  distance:    0.0000000
  band:
  - # 1
    frequency:   -0.0000001042
  - # 2
    frequency:   -0.0000000591
  - # 3
    frequency:    0.0000000758
  - # 4
    frequency:    2.1198460991
  - # 5
    frequency:    2.1198460991
  - # 6
    frequency:    5.3719462516
  - # 7
    frequency:    6.9181499168
  - # 8
    frequency:    7.0989773136
  - # 9
    frequency:    7.0989773136
  - # 10
    frequency:    7.1955534931
  - # 11
    frequency:    7.1955534931
  - # 12
    frequency:    8.8629248866

- q-position: [    0.0000000,    0.0000000,    0.0100000 ]
  distance:    0.0015537
  band:
  - # 1
    frequency:    0.0388862392
  - # 2
    frequency:    0.0388862392
  - # 3
    frequency:    0.0975402187
  - # 4
    frequency:    2.1196779274
  - # 5
    frequency:    2.1196779274
  - # 6
    frequency:    5.3708861676
  - # 7
    frequency:    6.9198755472
  - # 8
    frequency:    7.0989773247
  - # 9
    frequency:    7.0989773247
  - # 10
    frequency:    7.1955067052
  - # 11
    frequency:    7.1955067052
  - # 12
    frequency:    8.8637935275

- q-position: [    0.0000000,    0.0000000,    0.0200000 ]
  distance:    0.0031073
  band:
  - # 1
    frequency:    0.0777552403
  - # 2
    frequency:    0.0777552403
  - # 3
    frequency:    0.1950113431
  - # 4
    frequency:    2.1191732342
  - # 5
    frequency:    2.1191732342
  - # 6
    frequency:    5.3677126122
  - # 7
    frequency:    6.9250454288
  - # 8
    frequency:    7.0989774284
  - # 9
    frequency:    7.0989774284
  - # 10
    frequency:    7.1953664506
  - # 11
    frequency:    7.1953664506
  - # 12
    frequency:    8.8663907807

- q-position: [    0.0000000,    0.0000000,    0.0300000 ]
  distance:    0.0046610
  band:
  - # 1
    frequency:    0.1165897828
  - # 2
    frequency:    0.1165897828
  - # 3
    frequency:    0.2923445280
  - # 4
    frequency:    2.1183314851
  - # 5
    frequency:    2.1183314851
  - # 6
    frequency:    5.3624455160
  - # 7
    frequency:    6.9336385924
  - # 8
    frequency:    7.0989778361
  - # 9
    frequency:    7.0989778361
  - # 10
    frequency:    7.1951330567
  - # 11
    frequency:    7.1951330567
  - # 12
    frequency:    8.8706907980

- q-position: [    0.0000000,    0.0000000,    0.0400000 ]
  distance:    0.0062146
  band:
  - # 1
    frequency:    0.1553726820
  - # 2
    frequency:    0.1553726820
  - # 3
    frequency:    0.3894714237
  - # 4
    frequency:    2.1171517917
  - # 5
    frequency:    2.1171517917
  - # 6
    frequency:    5.3551175756
  - # 7
    frequency:    6.9456202895
  - # 8
    frequency:    7.0989788992
  - # 9
    frequency:    7.0989788992
  - # 10
    frequency:    7.1948070680
  - # 11
    frequency:    7.1948070680
  - # 12
    frequency:    8.8766510279

- q-position: [    0.0000000,    0.0000000,    0.0500000 ]
  distance:    0.0077683
  band:
  - # 1
    frequency:    0.1940868059
  - # 2
    frequency:    0.1940868059
  - # 3
    frequency:    0.4863244165
  - # 4
    frequency:    2.1156329142
  - # 5
    frequency:    2.1156329142
  - # 6
    frequency:    5.3457734963
  - # 7
    frequency:    6.9609422878
  - # 8
    frequency:    7.0989811070
  - # 9
    frequency:    7.0989811070
  - # 10
    frequency:    7.1943892447
  - # 11
    frequency:    7.1943892447
  - # 12
    frequency:    8.8842129826

- q-position: [    0.0000000,    0.0000000,    0.0600000 ]
  distance:    0.0093219
  band:
  - # 1
    frequency:    0.2327150935
  - # 2
    frequency:    0.2327150935
  - # 3
    frequency:    0.5828368606
  - # 4
    frequency:    2.1137732653
  - # 5
    frequency:    2.1137732653
  - # 6
    frequency:    5.3344689832
  - # 7
    frequency:    6.9795432775
  - # 8
    frequency:    7.0989850848
  - # 9
    frequency:    7.0989850848
  - # 10
    frequency:    7.1938805605
  - # 11
    frequency:    7.1938805605
  - # 12
    frequency:    8.8933032642

- q-position: [    0.0000000,    0.0000000,    0.0700000 ]
  distance:    0.0108756
  band:
  - # 1
    frequency:    0.2712405722
  - # 2
    frequency:    0.2712405722
  - # 3
    frequency:    0.6789432991
  - # 4
    frequency:    2.1115709159
  - # 5
    frequency:    2.1115709159
  - # 6
    frequency:    5.3212695216
  - # 7
    frequency:    7.0013493794
  - # 8
    frequency:    7.0989915909
  - # 9
    frequency:    7.0989915909
  - # 10
    frequency:    7.1932822001
  - # 11
    frequency:    7.1932822001
  - # 12
    frequency:    8.9038348043

- q-position: [    0.0000000,    0.0000000,    0.0800000 ]
  distance:    0.0124292
  band:
  - # 1
    frequency:    0.3096463754
  - # 2
    frequency:    0.3096463754
  - # 3
    frequency:    0.7745796724
  - # 4
    frequency:    2.1090236007
  - # 5
    frequency:    2.1090236007
  - # 6
    frequency:    5.3062490002
  - # 7
    frequency:    7.0262747477
  - # 8
    frequency:    7.0990015127
  - # 9
    frequency:    7.0990015127
  - # 10
    frequency:    7.1925955556
  - # 11
    frequency:    7.1925955556
  - # 12
    frequency:    8.9157082683

- q-position: [    0.0000000,    0.0000000,    0.0900000 ]
  distance:    0.0139829
  band:
  - # 1
    frequency:    0.3479157601
  - # 2
    frequency:    0.3479157601
  - # 3
    frequency:    0.8696835112
  - # 4
    frequency:    2.1061287260
  - # 5
    frequency:    2.1061287260
  - # 6
    frequency:    5.2894882283
  - # 7
    frequency:    7.0542222537
  - # 8
    frequency:    7.0990158628
  - # 9
    frequency:    7.0990158628
  - # 10
    frequency:    7.1918222227
  - # 11
    frequency:    7.1918222227
  - # 12
    frequency:    8.9288135715

- q-position: [    0.0000000,    0.0000000,    0.1000000 ]
  distance:    0.0155366
  band:
  - # 1
    frequency:    0.3860321240
  - # 2
    frequency:    0.3860321240
  - # 3
    frequency:    0.9641941136
  - # 4
    frequency:    2.1028833782
  - # 5
    frequency:    2.1028833782
  - # 6
    frequency:    5.2710734015
  - # 7
    frequency:    7.0850842415
  - # 8
    frequency:    7.0990357742
  - # 9
    frequency:    7.0990357742
  - # 10
    frequency:    7.1909639963
  - # 11
    frequency:    7.1909639963
  - # 12
    frequency:    8.9430314553

- q-position: [    0.0000000,    0.0000000,    0.1100000 ]
  distance:    0.0170902
  band:
  - # 1
    frequency:    0.4239790230
  - # 2
    frequency:    0.4239790230
  - # 3
    frequency:    1.0580527059
  - # 4
    frequency:    2.0992843334
  - # 5
    frequency:    2.0992843334
  - # 6
    frequency:    5.2510945631
  - # 7
    frequency:    7.0990624945
  - # 8
    frequency:    7.0990624945
  - # 9
    frequency:    7.1187433411
  - # 10
    frequency:    7.1900228652
  - # 11
    frequency:    7.1900228652
  - # 12
    frequency:    8.9582350746

- q-position: [    0.0000000,    0.0000000,    0.1200000 ]
  distance:    0.0186439
  band:
  - # 1
    frequency:    0.4617401889
  - # 2
    frequency:    0.4617401889
  - # 3
    frequency:    1.1512025847
  - # 4
    frequency:    2.0953280676
  - # 5
    frequency:    2.0953280676
  - # 6
    frequency:    5.2296441050
  - # 7
    frequency:    7.0990973803
  - # 8
    frequency:    7.0990973803
  - # 9
    frequency:    7.1550733273
  - # 10
    frequency:    7.1890010069
  - # 11
    frequency:    7.1890010069
  - # 12
    frequency:    8.9742915556

- q-position: [    0.0000000,    0.0000000,    0.1300000 ]
  distance:    0.0201975
  band:
  - # 1
    frequency:    0.4992995456
  - # 2
    frequency:    0.4992995456
  - # 3
    frequency:    1.2435892424
  - # 4
    frequency:    2.0910107691
  - # 5
    frequency:    2.0910107691
  - # 6
    frequency:    5.2068153441
  - # 7
    frequency:    7.0991418902
  - # 8
    frequency:    7.0991418902
  - # 9
    frequency:    7.1879007806
  - # 10
    frequency:    7.1879007806
  - # 11
    frequency:    7.1939400109
  - # 12
    frequency:    8.9910634881

- q-position: [    0.0000000,    0.0000000,    0.1400000 ]
  distance:    0.0217512
  band:
  - # 1
    frequency:    0.5366412269
  - # 2
    frequency:    0.5366412269
  - # 3
    frequency:    1.3351604748
  - # 4
    frequency:    2.0863283503
  - # 5
    frequency:    2.0863283503
  - # 6
    frequency:    5.1827012019
  - # 7
    frequency:    7.0991975781
  - # 8
    frequency:    7.0991975781
  - # 9
    frequency:    7.1867247213
  - # 10
    frequency:    7.1867247213
  - # 11
    frequency:    7.2352021507
  - # 12
    frequency:    9.0084103261

- q-position: [    0.0000000,    0.0000000,    0.1500000 ]
  distance:    0.0233048
  band:
  - # 1
    frequency:    0.5737495926
  - # 2
    frequency:    0.5737495926
  - # 3
    frequency:    1.4258664726
  - # 4
    frequency:    2.0812764622
  - # 5
    frequency:    2.0812764622
  - # 6
    frequency:    5.1573930062
  - # 7
    frequency:    7.0992660854
  - # 8
    frequency:    7.0992660854
  - # 9
    frequency:    7.1854755321
  - # 10
    frequency:    7.1854755321
  - # 11
    frequency:    7.2787123729
  - # 12
    frequency:    9.0261896779

- q-position: [    0.0000000,    0.0000000,    0.1600000 ]
  distance:    0.0248585
  band:
  - # 1
    frequency:    0.6106092458
  - # 2
    frequency:    0.6106092458
  - # 3
    frequency:    1.5156598968
  - # 4
    frequency:    2.0758505083
  - # 5
    frequency:    2.0758505083
  - # 6
    frequency:    5.1309794285
  - # 7
    frequency:    7.0993491327
  - # 8
    frequency:    7.0993491327
  - # 9
    frequency:    7.1841560762
  - # 10
    frequency:    7.1841560762
  - # 11
    frequency:    7.3243180887
  - # 12
    frequency:    9.0442584735

- q-position: [    0.0000000,    0.0000000,    0.1700000 ]
  distance:    0.0264121
  band:
  - # 1
    frequency:    0.6472050488
  - # 2
    frequency:    0.6472050488
  - # 3
    frequency:    1.6044959396
  - # 4
    frequency:    2.0700456605
  - # 5
    frequency:    2.0700456605
  - # 6
    frequency:    5.1035455630
  - # 7
    frequency:    7.0994485114
  - # 8
    frequency:    7.0994485114
  - # 9
    frequency:    7.1827693690
  - # 10
    frequency:    7.1827693690
  - # 11
    frequency:    7.3718623991
  - # 12
    frequency:    9.0624740046

- q-position: [    0.0000000,    0.0000000,    0.1800000 ]
  distance:    0.0279658
  band:
  - # 1
    frequency:    0.6835221396
  - # 2
    frequency:    0.6835221396
  - # 3
    frequency:    1.6923323723
  - # 4
    frequency:    2.0638568751
  - # 5
    frequency:    2.0638568751
  - # 6
    frequency:    5.0751721465
  - # 7
    frequency:    7.0995660748
  - # 8
    frequency:    7.0995660748
  - # 9
    frequency:    7.1813185690
  - # 10
    frequency:    7.1813185690
  - # 11
    frequency:    7.4211849784
  - # 12
    frequency:    9.0806948379

- q-position: [    0.0000000,    0.0000000,    0.1900000 ]
  distance:    0.0295195
  band:
  - # 1
    frequency:    0.7195459477
  - # 2
    frequency:    0.7195459477
  - # 3
    frequency:    1.7791295814
  - # 4
    frequency:    2.0572789105
  - # 5
    frequency:    2.0572789105
  - # 6
    frequency:    5.0459349169
  - # 7
    frequency:    7.0997037282
  - # 8
    frequency:    7.0997037282
  - # 9
    frequency:    7.1798069687
  - # 10
    frequency:    7.1798069687
  - # 11
    frequency:    7.4721229288
  - # 12
    frequency:    9.0987816051

- q-position: [    0.0000000,    0.0000000,    0.2000000 ]
  distance:    0.0310731
  band:
  - # 1
    frequency:    0.7552622099
  - # 2
    frequency:    0.7552622099
  - # 3
    frequency:    1.8648505939
  - # 4
    frequency:    2.0503063446
  - # 5
    frequency:    2.0503063446
  - # 6
    frequency:    5.0159041032
  - # 7
    frequency:    7.0998634199
  - # 8
    frequency:    7.0998634199
  - # 9
    frequency:    7.1782379846
  - # 10
    frequency:    7.1782379846
  - # 11
    frequency:    7.5245115997
  - # 12
    frequency:    9.1165976780

- q-position: [    0.0000000,    0.0000000,    0.2100000 ]
  distance:    0.0326268
  band:
  - # 1
    frequency:    0.7906569856
  - # 2
    frequency:    0.7906569856
  - # 3
    frequency:    1.9494610947
  - # 4
    frequency:    2.0429335942
  - # 5
    frequency:    2.0429335942
  - # 6
    frequency:    4.9851440362
  - # 7
    frequency:    7.1000471303
  - # 8
    frequency:    7.1000471303
  - # 9
    frequency:    7.1766151473
  - # 10
    frequency:    7.1766151473
  - # 11
    frequency:    7.5781853671
  - # 12
    frequency:    9.1340097376

- q-position: [    0.0000000,    0.0000000,    0.2200000 ]
  distance:    0.0341804
  band:
  - # 1
    frequency:    0.8257166718
  - # 2
    frequency:    0.8257166718
  - # 3
    frequency:    2.0329294359
  - # 4
    frequency:    2.0351549337
  - # 5
    frequency:    2.0351549337
  - # 6
    frequency:    4.9537128728
  - # 7
    frequency:    7.1002568619
  - # 8
    frequency:    7.1002568619
  - # 9
    frequency:    7.1749420910
  - # 10
    frequency:    7.1749420910
  - # 11
    frequency:    7.6329783686
  - # 12
    frequency:    9.1508882476

- q-position: [    0.0000000,    0.0000000,    0.2300000 ]
  distance:    0.0357341
  band:
  - # 1
    frequency:    0.8604280180
  - # 2
    frequency:    0.8604280180
  - # 3
    frequency:    2.0269645157
  - # 4
    frequency:    2.0269645157
  - # 5
    frequency:    2.1152266404
  - # 6
    frequency:    4.9216624194
  - # 7
    frequency:    7.1004946288
  - # 8
    frequency:    7.1004946288
  - # 9
    frequency:    7.1732225425
  - # 10
    frequency:    7.1732225425
  - # 11
    frequency:    7.6887251916
  - # 12
    frequency:    9.1671078437

- q-position: [    0.0000000,    0.0000000,    0.2400000 ]
  distance:    0.0372877
  band:
  - # 1
    frequency:    0.8947781402
  - # 2
    frequency:    0.8947781402
  - # 3
    frequency:    2.0183563915
  - # 4
    frequency:    2.0183563915
  - # 5
    frequency:    2.1963264005
  - # 6
    frequency:    4.8890380466
  - # 7
    frequency:    7.1007624453
  - # 8
    frequency:    7.1007624453
  - # 9
    frequency:    7.1714603096
  - # 10
    frequency:    7.1714603096
  - # 11
    frequency:    7.7452615133
  - # 12
    frequency:    9.1825476502

- q-position: [    0.0000000,    0.0000000,    0.2500000 ]
  distance:    0.0388414
  band:
  - # 1
    frequency:    0.9287545351
  - # 2
    frequency:    0.9287545351
  - # 3
    frequency:    2.0093245322
  - # 4
    frequency:    2.0093245322
  - # 5
    frequency:    2.2762050726
  - # 6
    frequency:    4.8558786816
  - # 7
    frequency:    7.1010623157
  - # 8
    frequency:    7.1010623157
  - # 9
    frequency:    7.1696592703
  - # 10
    frequency:    7.1696592703
  - # 11
    frequency:    7.8024246907
  - # 12
    frequency:    9.1970915323

- q-position: [    0.0000000,    0.0000000,    0.2600000 ]
  distance:    0.0403950
  band:
  - # 1
    frequency:    0.9623450931
  - # 2
    frequency:    0.9623450931
  - # 3
    frequency:    1.9998628507
  - # 4
    frequency:    1.9998628507
  - # 5
    frequency:    2.3548416697
  - # 6
    frequency:    4.8222168700
  - # 7
    frequency:    7.1013962223
  - # 8
    frequency:    7.1013962223
  - # 9
    frequency:    7.1678233604
  - # 10
    frequency:    7.1678233604
  - # 11
    frequency:    7.8600543022
  - # 12
    frequency:    9.2106282967

- q-position: [    0.0000000,    0.0000000,    0.2700000 ]
  distance:    0.0419487
  band:
  - # 1
    frequency:    0.9955381116
  - # 2
    frequency:    0.9955381116
  - # 3
    frequency:    1.9899652234
  - # 4
    frequency:    1.9899652234
  - # 5
    frequency:    2.4322178508
  - # 6
    frequency:    4.7880788972
  - # 7
    frequency:    7.1017661149
  - # 8
    frequency:    7.1017661149
  - # 9
    frequency:    7.1659565615
  - # 10
    frequency:    7.1659565615
  - # 11
    frequency:    7.9179926402
  - # 12
    frequency:    9.2230518468

- q-position: [    0.0000000,    0.0000000,    0.2800000 ]
  distance:    0.0435024
  band:
  - # 1
    frequency:    1.0283223071
  - # 2
    frequency:    1.0283223071
  - # 3
    frequency:    1.9796255130
  - # 4
    frequency:    1.9796255130
  - # 5
    frequency:    2.5083179089
  - # 6
    frequency:    4.7534849595
  - # 7
    frequency:    7.1021738991
  - # 8
    frequency:    7.1021738991
  - # 9
    frequency:    7.1640628891
  - # 10
    frequency:    7.1640628891
  - # 11
    frequency:    7.9760851562
  - # 12
    frequency:    9.2342613023

- q-position: [    0.0000000,    0.0000000,    0.2900000 ]
  distance:    0.0450560
  band:
  - # 1
    frequency:    1.0606868271
  - # 2
    frequency:    1.0606868271
  - # 3
    frequency:    1.9688375912
  - # 4
    frequency:    1.9688375912
  - # 5
    frequency:    2.5831287579
  - # 6
    frequency:    4.7184493785
  - # 7
    frequency:    7.1026214257
  - # 8
    frequency:    7.1026214257
  - # 9
    frequency:    7.1621463799
  - # 10
    frequency:    7.1621463799
  - # 11
    frequency:    8.0341808614
  - # 12
    frequency:    9.2441610882

- q-position: [    0.0000000,    0.0000000,    0.3000000 ]
  distance:    0.0466097
  band:
  - # 1
    frequency:    1.0926212613
  - # 2
    frequency:    1.0926212613
  - # 3
    frequency:    1.9575953617
  - # 4
    frequency:    1.9575953617
  - # 5
    frequency:    2.6566399179
  - # 6
    frequency:    4.6829808505
  - # 7
    frequency:    7.1031104788
  - # 8
    frequency:    7.1031104788
  - # 9
    frequency:    7.1602110794
  - # 10
    frequency:    7.1602110794
  - # 11
    frequency:    8.0921326833
  - # 12
    frequency:    9.2526610017

- q-position: [    0.0000000,    0.0000000,    0.3100000 ]
  distance:    0.0481633
  band:
  - # 1
    frequency:    1.1241156519
  - # 2
    frequency:    1.1241156519
  - # 3
    frequency:    1.9458927833
  - # 4
    frequency:    1.9458927833
  - # 5
    frequency:    2.7288434996
  - # 6
    frequency:    4.6470827253
  - # 7
    frequency:    7.1036427657
  - # 8
    frequency:    7.1036427657
  - # 9
    frequency:    7.1582610294
  - # 10
    frequency:    7.1582610294
  - # 11
    frequency:    8.1497977814
  - # 12
    frequency:    9.2596762595

- q-position: [    0.0000000,    0.0000000,    0.3200000 ]
  distance:    0.0497170
  band:
  - # 1
    frequency:    1.1551605038
  - # 2
    frequency:    1.1551605038
  - # 3
    frequency:    1.9337238932
  - # 4
    frequency:    1.9337238932
  - # 5
    frequency:    2.7997341869
  - # 6
    frequency:    4.6107533081
  - # 7
    frequency:    7.1042199054
  - # 8
    frequency:    7.1042199054
  - # 9
    frequency:    7.1563002556
  - # 10
    frequency:    7.1563002556
  - # 11
    frequency:    8.2070378252
  - # 12
    frequency:    9.2651275315

- q-position: [    0.0000000,    0.0000000,    0.3300000 ]
  distance:    0.0512706
  band:
  - # 1
    frequency:    1.1857467933
  - # 2
    frequency:    1.1857467933
  - # 3
    frequency:    1.9210828304
  - # 4
    frequency:    1.9210828304
  - # 5
    frequency:    2.8693092179
  - # 6
    frequency:    4.5739861797
  - # 7
    frequency:    7.1048434187
  - # 8
    frequency:    7.1048434187
  - # 9
    frequency:    7.1543327546
  - # 10
    frequency:    7.1543327546
  - # 11
    frequency:    8.2637192365
  - # 12
    frequency:    9.2689409640

- q-position: [    0.0000000,    0.0000000,    0.3400000 ]
  distance:    0.0528243
  band:
  - # 1
    frequency:    1.2158659766
  - # 2
    frequency:    1.2158659766
  - # 3
    frequency:    1.9079638589
  - # 4
    frequency:    1.9079638589
  - # 5
    frequency:    2.9375683641
  - # 6
    frequency:    4.5367705302
  - # 7
    frequency:    7.1055147174
  - # 8
    frequency:    7.1055147174
  - # 9
    frequency:    7.1523624821
  - # 10
    frequency:    7.1523624821
  - # 11
    frequency:    8.3197133984
  - # 12
    frequency:    9.2710481950

- q-position: [    0.0000000,    0.0000000,    0.3500000 ]
  distance:    0.0543779
  band:
  - # 1
    frequency:    1.2455099973
  - # 2
    frequency:    1.2455099973
  - # 3
    frequency:    1.8943613908
  - # 4
    frequency:    1.8943613908
  - # 5
    frequency:    3.0045139066
  - # 6
    frequency:    4.4990915027
  - # 7
    frequency:    7.1062350947
  - # 8
    frequency:    7.1062350947
  - # 9
    frequency:    7.1503933401
  - # 10
    frequency:    7.1503933401
  - # 11
    frequency:    8.3748968350
  - # 12
    frequency:    9.2713863652

- q-position: [    0.0000000,    0.0000000,    0.3600000 ]
  distance:    0.0559316
  band:
  - # 1
    frequency:    1.2746712931
  - # 2
    frequency:    1.2746712931
  - # 3
    frequency:    1.8802700093
  - # 4
    frequency:    1.8802700093
  - # 5
    frequency:    3.0701506090
  - # 6
    frequency:    4.4609305427
  - # 7
    frequency:    7.1070057158
  - # 8
    frequency:    7.1070057158
  - # 9
    frequency:    7.1484291652
  - # 10
    frequency:    7.1484291652
  - # 11
    frequency:    8.4291513636
  - # 12
    frequency:    9.2698981243

- q-position: [    0.0000000,    0.0000000,    0.3700000 ]
  distance:    0.0574852
  band:
  - # 1
    frequency:    1.3033428011
  - # 2
    frequency:    1.3033428011
  - # 3
    frequency:    1.8656844915
  - # 4
    frequency:    1.8656844915
  - # 5
    frequency:    3.1344856865
  - # 6
    frequency:    4.4222657507
  - # 7
    frequency:    7.1078276084
  - # 8
    frequency:    7.1078276084
  - # 9
    frequency:    7.1464737165
  - # 10
    frequency:    7.1464737165
  - # 11
    frequency:    8.4823642218
  - # 12
    frequency:    9.2665316372

- q-position: [    0.0000000,    0.0000000,    0.3800000 ]
  distance:    0.0590389
  band:
  - # 1
    frequency:    1.3315179634
  - # 2
    frequency:    1.3315179634
  - # 3
    frequency:    1.8505998306
  - # 4
    frequency:    1.8505998306
  - # 5
    frequency:    3.1975287704
  - # 6
    frequency:    4.3830722340
  - # 7
    frequency:    7.1087016548
  - # 8
    frequency:    7.1087016548
  - # 9
    frequency:    7.1445306642
  - # 10
    frequency:    7.1445306642
  - # 11
    frequency:    8.5344281728
  - # 12
    frequency:    9.2612405886

- q-position: [    0.0000000,    0.0000000,    0.3900000 ]
  distance:    0.0605926
  band:
  - # 1
    frequency:    1.3591907301
  - # 2
    frequency:    1.3591907301
  - # 3
    frequency:    1.8350112580
  - # 4
    frequency:    1.8350112580
  - # 5
    frequency:    3.2592918669
  - # 6
    frequency:    4.3433224574
  - # 7
    frequency:    7.1096285832
  - # 8
    frequency:    7.1096285832
  - # 9
    frequency:    7.1426035782
  - # 10
    frequency:    7.1426035782
  - # 11
    frequency:    8.5852415907
  - # 12
    frequency:    9.2539841885

- q-position: [    0.0000000,    0.0000000,    0.4000000 ]
  distance:    0.0621462
  band:
  - # 1
    frequency:    1.3863555628
  - # 2
    frequency:    1.3863555628
  - # 3
    frequency:    1.8189142650
  - # 4
    frequency:    1.8189142650
  - # 5
    frequency:    3.3197893094
  - # 6
    frequency:    4.3029865879
  - # 7
    frequency:    7.1106089607
  - # 8
    frequency:    7.1106089607
  - # 9
    frequency:    7.1406959177
  - # 10
    frequency:    7.1406959177
  - # 11
    frequency:    8.6347085286
  - # 12
    frequency:    9.2447271782

- q-position: [    0.0000000,    0.0000000,    0.4100000 ]
  distance:    0.0636999
  band:
  - # 1
    frequency:    1.4130074360
  - # 2
    frequency:    1.4130074360
  - # 3
    frequency:    1.8023046233
  - # 4
    frequency:    1.8023046233
  - # 5
    frequency:    3.3790377048
  - # 6
    frequency:    4.2620328331
  - # 7
    frequency:    7.1116431862
  - # 8
    frequency:    7.1116431862
  - # 9
    frequency:    7.1388110205
  - # 10
    frequency:    7.1388110205
  - # 11
    frequency:    8.6827387706
  - # 12
    frequency:    9.2334398388

- q-position: [    0.0000000,    0.0000000,    0.4200000 ]
  distance:    0.0652535
  band:
  - # 1
    frequency:    1.4391418383
  - # 2
    frequency:    1.4391418383
  - # 3
    frequency:    1.7851784060
  - # 4
    frequency:    1.7851784060
  - # 5
    frequency:    3.4370558702
  - # 6
    frequency:    4.2204277715
  - # 7
    frequency:    7.1127314845
  - # 8
    frequency:    7.1127314845
  - # 9
    frequency:    7.1369520933
  - # 10
    frequency:    7.1369520933
  - # 11
    frequency:    8.7292478705
  - # 12
    frequency:    9.2200980002

- q-position: [    0.0000000,    0.0000000,    0.4300000 ]
  distance:    0.0668072
  band:
  - # 1
    frequency:    1.4647547717
  - # 2
    frequency:    1.4647547717
  - # 3
    frequency:    1.7675320071
  - # 4
    frequency:    1.7675320071
  - # 5
    frequency:    3.4938647621
  - # 6
    frequency:    4.1781366727
  - # 7
    frequency:    7.1138739006
  - # 8
    frequency:    7.1138739006
  - # 9
    frequency:    7.1351222024
  - # 10
    frequency:    7.1351222024
  - # 11
    frequency:    8.7741571789
  - # 12
    frequency:    9.2046830531

- q-position: [    0.0000000,    0.0000000,    0.4400000 ]
  distance:    0.0683608
  band:
  - # 1
    frequency:    1.4898427502
  - # 2
    frequency:    1.4898427502
  - # 3
    frequency:    1.7493621604
  - # 4
    frequency:    1.7493621604
  - # 5
    frequency:    3.5494873958
  - # 6
    frequency:    4.1351238065
  - # 7
    frequency:    7.1150702954
  - # 8
    frequency:    7.1150702954
  - # 9
    frequency:    7.1333242650
  - # 10
    frequency:    7.1333242650
  - # 11
    frequency:    8.8173938601
  - # 12
    frequency:    9.1871819628

- q-position: [    0.0000000,    0.0000000,    0.4500000 ]
  distance:    0.0699145
  band:
  - # 1
    frequency:    1.5144027977
  - # 2
    frequency:    1.5144027977
  - # 3
    frequency:    1.7306659578
  - # 4
    frequency:    1.7306659578
  - # 5
    frequency:    3.6039487537
  - # 6
    frequency:    4.0913527396
  - # 7
    frequency:    7.1163203412
  - # 8
    frequency:    7.1163203412
  - # 9
    frequency:    7.1315610413
  - # 10
    frequency:    7.1315610413
  - # 11
    frequency:    8.8588908999
  - # 12
    frequency:    9.1675872845

- q-position: [    0.0000000,    0.0000000,    0.4600000 ]
  distance:    0.0714681
  band:
  - # 1
    frequency:    1.5384324439
  - # 2
    frequency:    1.5384324439
  - # 3
    frequency:    1.7114408669
  - # 4
    frequency:    1.7114408669
  - # 5
    frequency:    3.6572756836
  - # 6
    frequency:    4.0467866196
  - # 7
    frequency:    7.1176235190
  - # 8
    frequency:    7.1176235190
  - # 9
    frequency:    7.1298351267
  - # 10
    frequency:    7.1298351267
  - # 11
    frequency:    8.8985871067
  - # 12
    frequency:    9.1458971809

- q-position: [    0.0000000,    0.0000000,    0.4700000 ]
  distance:    0.0730218
  band:
  - # 1
    frequency:    1.5619297197
  - # 2
    frequency:    1.5619297197
  - # 3
    frequency:    1.6916847476
  - # 4
    frequency:    1.6916847476
  - # 5
    frequency:    3.7094967844
  - # 6
    frequency:    4.0013884452
  - # 7
    frequency:    7.1189791157
  - # 8
    frequency:    7.1189791157
  - # 9
    frequency:    7.1281489454
  - # 10
    frequency:    7.1281489454
  - # 11
    frequency:    8.9364271060
  - # 12
    frequency:    9.1221154410

- q-position: [    0.0000000,    0.0000000,    0.4800000 ]
  distance:    0.0745755
  band:
  - # 1
    frequency:    1.5848931513
  - # 2
    frequency:    1.5848931513
  - # 3
    frequency:    1.6713958673
  - # 4
    frequency:    1.6713958673
  - # 5
    frequency:    3.7606422796
  - # 6
    frequency:    3.9551213219
  - # 7
    frequency:    7.1203862232
  - # 8
    frequency:    7.1203862232
  - # 9
    frequency:    7.1265047447
  - # 10
    frequency:    7.1265047447
  - # 11
    frequency:    8.9723613304
  - # 12
    frequency:    9.0962515013

- q-position: [    0.0000000,    0.0000000,    0.4900000 ]
  distance:    0.0761291
  band:
  - # 1
    frequency:    1.6073217532
  - # 2
    frequency:    1.6073217532
  - # 3
    frequency:    1.6505729160
  - # 4
    frequency:    1.6505729160
  - # 5
    frequency:    3.8107438772
  - # 6
    frequency:    3.9079487033
  - # 7
    frequency:    7.1218437373
  - # 8
    frequency:    7.1218437373
  - # 9
    frequency:    7.1249045894
  - # 10
    frequency:    7.1249045894
  - # 11
    frequency:    9.0063460053
  - # 12
    frequency:    9.0683204664

- q-position: [    0.0000000,    0.0000000,    0.5000000 ]
  distance:    0.0776828
  band:
  - # 1
    frequency:    1.6292150198
  - # 2
    frequency:    1.6292150198
  - # 3
    frequency:    1.6292150198
  - # 4
    frequency:    1.6292150198
  - # 5
    frequency:    3.8598346171
  - # 6
    frequency:    3.8598346171
  - # 7
    frequency:    7.1233503576
  - # 8
    frequency:    7.1233503576
  - # 9
    frequency:    7.1233503576
  - # 10
    frequency:    7.1233503576
  - # 11
    frequency:    9.0383431317
  - # 12
    frequency:    9.0383431317

- q-position: [    0.0000000,    0.0000000,    0.5000000 ]
  distance:    0.0776828
  band:
  - # 1
    frequency:    1.6292150198
  - # 2
    frequency:    1.6292150198