  72  72   0   0
  0.1956167E+02  0.1141739E-08  0.1141739E-08  0.1247596E-08  0.5000000E-15
  1.000000000000000E-004
  CAR 
 unknown system                          
     12.43251170    -12.13629686  301      2.36953720      1.00000000
    -12.136  0.0000E+00  0.0000E+00
    -12.054  0.0000E+00  0.0000E+00
    -11.973  0.0000E+00  0.0000E+00
    -11.891  0.0000E+00  0.0000E+00
    -11.809  0.0000E+00  0.0000E+00
    -11.727  0.0000E+00  0.0000E+00
    -11.645  0.0000E+00  0.0000E+00
    -11.563  0.0000E+00  0.0000E+00
    -11.481  0.0000E+00  0.0000E+00
    -11.399  0.0000E+00  0.0000E+00
    -11.317  0.0000E+00  0.0000E+00
    -11.235  0.0000E+00  0.0000E+00
    -11.154  0.4061E-09  0.3326E-10
    -11.072  0.2140E-01  0.1752E-02
    -10.990  0.2787E+01  0.2300E+00
    -10.908  0.2381E+01  0.4250E+00
    -10.826  0.1619E+02  0.1751E+01
    -10.744  0.1215E+02  0.2746E+01
    -10.662  0.3051E+02  0.5244E+01
    -10.580  0.3908E+01  0.5564E+01
    -10.498  0.1734E+02  0.6984E+01
    -10.416  0.5881E+02  0.1180E+02
    -10.335  0.3984E+02  0.1506E+02
    -10.253  0.3379E+02  0.1783E+02
    -10.171  0.3480E+02  0.2068E+02
    -10.089  0.9695E+02  0.2862E+02
    -10.007  0.1200E+03  0.3845E+02
     -9.925  0.8054E+02  0.4504E+02
     -9.843  0.1268E+03  0.5542E+02
     -9.761  0.1659E+03  0.6901E+02
     -9.679  0.3648E+02  0.7200E+02
     -9.598  0.1735E-01  0.7200E+02
     -9.516  0.1229E-10  0.7200E+02
     -9.434  0.0000E+00  0.7200E+02
     -9.352  0.0000E+00  0.7200E+02
     -9.270  0.0000E+00  0.7200E+02
     -9.188  0.0000E+00  0.7200E+02
     -9.106  0.0000E+00  0.7200E+02
     -9.024  0.0000E+00  0.7200E+02
     -8.942  0.0000E+00  0.7200E+02
     -8.860  0.0000E+00  0.7200E+02
     -8.779  0.0000E+00  0.7200E+02
     -8.697  0.0000E+00  0.7200E+02
     -8.615  0.0000E+00  0.7200E+02
     -8.533  0.0000E+00  0.7200E+02
     -8.451  0.0000E+00  0.7200E+02
     -8.369  0.0000E+00  0.7200E+02
     -8.287  0.0000E+00  0.7200E+02
     -8.205  0.0000E+00  0.7200E+02
     -8.123  0.0000E+00  0.7200E+02
     -8.041  0.0000E+00  0.7200E+02
     -7.960  0.0000E+00  0.7200E+02
     -7.878  0.0000E+00  0.7200E+02
     -7.796  0.0000E+00  0.7200E+02
     -7.714  0.0000E+00  0.7200E+02
     -7.632  0.0000E+00  0.7200E+02
     -7.550  0.0000E+00  0.7200E+02
     -7.468  0.0000E+00  0.7200E+02
     -7.386  0.0000E+00  0.7200E+02
     -7.304  0.0000E+00  0.7200E+02
     -7.223  0.0000E+00  0.7200E+02
     -7.141  0.0000E+00  0.7200E+02
     -7.059  0.0000E+00  0.7200E+02
     -6.977  0.0000E+00  0.7200E+02
     -6.895  0.0000E+00  0.7200E+02
     -6.813  0.0000E+00  0.7200E+02
     -6.731  0.0000E+00  0.7200E+02
     -6.649  0.0000E+00  0.7200E+02
     -6.567  0.0000E+00  0.7200E+02
     -6.485  0.0000E+00  0.7200E+02
     -6.404  0.0000E+00  0.7200E+02
     -6.322  0.0000E+00  0.7200E+02
     -6.240  0.0000E+00  0.7200E+02
     -6.158  0.0000E+00  0.7200E+02
     -6.076  0.0000E+00  0.7200E+02
     -5.994  0.0000E+00  0.7200E+02
     -5.912  0.0000E+00  0.7200E+02
     -5.830  0.0000E+00  0.7200E+02
     -5.748  0.0000E+00  0.7200E+02
     -5.667  0.0000E+00  0.7200E+02
     -5.585  0.0000E+00  0.7200E+02
     -5.503  0.0000E+00  0.7200E+02
     -5.421  0.0000E+00  0.7200E+02
     -5.339  0.0000E+00  0.7200E+02
     -5.257  0.0000E+00  0.7200E+02
     -5.175  0.0000E+00  0.7200E+02
     -5.093  0.0000E+00  0.7200E+02
     -5.011  0.0000E+00  0.7200E+02
     -4.929  0.0000E+00  0.7200E+02
     -4.848  0.0000E+00  0.7200E+02
     -4.766  0.0000E+00  0.7200E+02
     -4.684  0.0000E+00  0.7200E+02
     -4.602  0.0000E+00  0.7200E+02
     -4.520  0.0000E+00  0.7200E+02
     -4.438  0.0000E+00  0.7200E+02
     -4.356  0.4508E-13  0.7200E+02
     -4.274  0.1253E-02  0.7200E+02
     -4.192  0.5570E+02  0.7656E+02
     -4.110  0.5663E+03  0.1229E+03
     -4.029  0.6227E+03  0.1739E+03
     -3.947  0.4804E+03  0.2133E+03
     -3.865  0.5283E+03  0.2565E+03
     -3.783  0.2839E+03  0.2798E+03
     -3.701  0.3510E+03  0.3085E+03
     -3.619  0.7920E+03  0.3734E+03
     -3.537  0.2857E+03  0.3968E+03
     -3.455  0.1984E+03  0.4130E+03
     -3.373  0.8898E+02  0.4203E+03
     -3.292  0.1292E+03  0.4309E+03
     -3.210  0.1325E+02  0.4320E+03
     -3.128  0.2878E+01  0.4322E+03
     -3.046  0.1212E+00  0.4322E+03
     -2.964  0.3629E-01  0.4323E+03
     -2.882  0.1528E+02  0.4335E+03
     -2.800  0.1165E+02  0.4345E+03
     -2.718  0.1039E+02  0.4353E+03
     -2.636  0.2402E+02  0.4373E+03
     -2.554  0.1014E+03  0.4456E+03
     -2.473  0.5975E+02  0.4505E+03
     -2.391  0.2864E+02  0.4528E+03
     -2.309  0.7069E+02  0.4586E+03
     -2.227  0.4915E+02  0.4626E+03
     -2.145  0.1226E+02  0.4636E+03
     -2.063  0.5323E+02  0.4680E+03
     -1.981  0.3366E+02  0.4708E+03
     -1.899  0.7740E+02  0.4771E+03
     -1.817  0.2744E+02  0.4793E+03
     -1.736  0.1123E+02  0.4803E+03
     -1.654  0.3481E+02  0.4831E+03
     -1.572  0.7859E+01  0.4837E+03
     -1.490  0.4507E-01  0.4838E+03
     -1.408  0.2316E+02  0.4857E+03
     -1.326  0.5453E+02  0.4901E+03
     -1.244  0.2603E+02  0.4922E+03
     -1.162  0.1911E-01  0.4923E+03
     -1.080  0.9046E+01  0.4930E+03
     -0.998  0.3652E+02  0.4960E+03
     -0.917  0.2788E+00  0.4960E+03
     -0.835  0.2704E+02  0.4982E+03
     -0.753  0.9201E+02  0.5058E+03
     -0.671  0.7783E+02  0.5121E+03
     -0.589  0.6927E+02  0.5178E+03
     -0.507  0.2011E+02  0.5194E+03
     -0.425  0.5627E+02  0.5241E+03
     -0.343  0.5425E+01  0.5245E+03
     -0.261  0.7636E-01  0.5245E+03
     -0.179  0.5935E+02  0.5294E+03
     -0.098  0.1100E+03  0.5384E+03
     -0.016  0.1010E+02  0.5392E+03
      0.066  0.5485E+01  0.5397E+03
      0.148  0.3454E+02  0.5425E+03
      0.230  0.6502E+02  0.5478E+03
      0.312  0.4824E+02  0.5518E+03
      0.394  0.3443E+02  0.5546E+03
      0.476  0.1652E+03  0.5681E+03
      0.558  0.6363E+02  0.5733E+03
      0.639  0.6215E+02  0.5784E+03
      0.721  0.5233E+02  0.5827E+03
      0.803  0.1127E+03  0.5919E+03
      0.885  0.1090E+03  0.6009E+03
      0.967  0.8714E+02  0.6080E+03
      1.049  0.2616E+02  0.6101E+03
      1.131  0.6939E+02  0.6158E+03
      1.213  0.5697E+02  0.6205E+03
      1.295  0.1134E+02  0.6214E+03
      1.377  0.9297E+02  0.6290E+03
      1.458  0.6863E+02  0.6346E+03
      1.540  0.2043E+02  0.6363E+03
      1.622  0.3576E+02  0.6392E+03
      1.704  0.1083E+01  0.6393E+03
      1.786  0.1946E+02  0.6409E+03
      1.868  0.3399E+02  0.6437E+03
      1.950  0.1420E+02  0.6449E+03
      2.032  0.1759E+02  0.6463E+03
      2.114  0.1212E+02  0.6473E+03
      2.196  0.4266E+01  0.6477E+03
      2.277  0.4193E+01  0.6480E+03
      2.359  0.2265E-02  0.6480E+03
      2.441  0.1429E-11  0.6480E+03
      2.523  0.0000E+00  0.6480E+03
      2.605  0.0000E+00  0.6480E+03
      2.687  0.0000E+00  0.6480E+03
      2.769  0.0000E+00  0.6480E+03
      2.851  0.0000E+00  0.6480E+03
      2.933  0.0000E+00  0.6480E+03
      3.014  0.0000E+00  0.6480E+03
      3.096  0.0000E+00  0.6480E+03
      3.178  0.0000E+00  0.6480E+03
      3.260  0.0000E+00  0.6480E+03
      3.342  0.0000E+00  0.6480E+03
      3.424  0.0000E+00  0.6480E+03
      3.506  0.0000E+00  0.6480E+03
      3.588  0.0000E+00  0.6480E+03
      3.670  0.0000E+00  0.6480E+03
      3.752  0.0000E+00  0.6480E+03
      3.833  0.0000E+00  0.6480E+03
      3.915  0.0000E+00  0.6480E+03
      3.997  0.0000E+00  0.6480E+03
      4.079  0.0000E+00  0.6480E+03
      4.161  0.0000E+00  0.6480E+03
      4.243  0.0000E+00  0.6480E+03
      4.325  0.1493E-05  0.6480E+03
      4.407  0.4586E+00  0.6480E+03
      4.489  0.2587E+01  0.6482E+03
      4.570  0.7212E-02  0.6482E+03
      4.652  0.3505E-10  0.6482E+03
      4.734  0.0000E+00  0.6482E+03
      4.816  0.0000E+00  0.6482E+03
      4.898  0.0000E+00  0.6482E+03
      4.980  0.0000E+00  0.6482E+03
      5.062  0.0000E+00  0.6482E+03
      5.144  0.7117E-14  0.6482E+03
      5.226  0.1142E-03  0.6483E+03
      5.308  0.2583E+01  0.6485E+03
      5.389  0.6568E+01  0.6490E+03
      5.471  0.3883E+01  0.6493E+03
      5.553  0.7968E+01  0.6500E+03
      5.635  0.1278E+02  0.6510E+03
      5.717  0.1784E+02  0.6525E+03
      5.799  0.4921E+02  0.6565E+03
      5.881  0.1942E+02  0.6581E+03
      5.963  0.3392E+01  0.6584E+03
      6.045  0.5235E+02  0.6627E+03
      6.127  0.4531E+02  0.6664E+03
      6.208  0.1089E+02  0.6673E+03
      6.290  0.1698E+02  0.6687E+03
      6.372  0.9173E+01  0.6694E+03
      6.454  0.2138E+03  0.6869E+03
      6.536  0.6822E+02  0.6925E+03
      6.618  0.2661E+02  0.6947E+03
      6.700  0.3192E+02  0.6973E+03
      6.782  0.8623E+01  0.6980E+03
      6.864  0.4412E+00  0.6980E+03
      6.945  0.5755E+02  0.7027E+03
      7.027  0.1531E+02  0.7040E+03
      7.109  0.1052E+02  0.7049E+03
      7.191  0.9024E+02  0.7123E+03
      7.273  0.7463E+02  0.7184E+03
      7.355  0.4388E+02  0.7220E+03
      7.437  0.3361E+02  0.7247E+03
      7.519  0.1268E+02  0.7257E+03
      7.601  0.3050E-03  0.7258E+03
      7.683  0.1396E-06  0.7258E+03
      7.764  0.1133E+01  0.7258E+03
      7.846  0.8038E+02  0.7324E+03
      7.928  0.9973E+02  0.7406E+03
      8.010  0.8627E+02  0.7477E+03
      8.092  0.1101E+03  0.7567E+03
      8.174  0.1196E+03  0.7665E+03
      8.256  0.2786E+02  0.7687E+03
      8.338  0.2488E+01  0.7690E+03
      8.420  0.8528E+02  0.7759E+03
      8.502  0.3013E+02  0.7784E+03
      8.583  0.5107E+02  0.7826E+03
      8.665  0.1416E+02  0.7837E+03
      8.747  0.1809E+00  0.7838E+03
      8.829  0.2860E+01  0.7840E+03
      8.911  0.3901E+00  0.7840E+03
      8.993  0.4606E+02  0.7878E+03
      9.075  0.2795E+02  0.7901E+03
      9.157  0.8545E+02  0.7971E+03
      9.239  0.1330E+03  0.8080E+03
      9.320  0.7653E+02  0.8143E+03
      9.402  0.2518E+02  0.8163E+03
      9.484  0.1728E+02  0.8177E+03
      9.566  0.5009E+02  0.8218E+03
      9.648  0.8749E+02  0.8290E+03
      9.730  0.1269E+03  0.8394E+03
      9.812  0.6294E+02  0.8445E+03
      9.894  0.2027E+02  0.8462E+03
      9.976  0.3649E+01  0.8465E+03
     10.058  0.1342E+01  0.8466E+03
     10.139  0.4758E+01  0.8470E+03
     10.221  0.3315E+01  0.8473E+03
     10.303  0.2132E+02  0.8490E+03
     10.385  0.6109E+02  0.8540E+03
     10.467  0.1935E+02  0.8556E+03
     10.549  0.4379E+02  0.8592E+03
     10.631  0.1587E+03  0.8722E+03
     10.713  0.5891E+02  0.8770E+03
     10.795  0.1087E+03  0.8859E+03
     10.876  0.1124E+02  0.8868E+03
     10.958  0.2041E+01  0.8870E+03
     11.040  0.3877E+02  0.8902E+03
     11.122  0.1750E+02  0.8916E+03
     11.204  0.1683E+02  0.8930E+03
     11.286  0.1131E+02  0.8939E+03
     11.368  0.2539E+02  0.8960E+03
     11.450  0.7886E-01  0.8960E+03
     11.532  0.1254E-08  0.8960E+03
     11.614  0.0000E+00  0.8960E+03
     11.695  0.0000E+00  0.8960E+03
     11.777  0.0000E+00  0.8960E+03
     11.859  0.0000E+00  0.8960E+03
     11.941  0.0000E+00  0.8960E+03
     12.023  0.0000E+00  0.8960E+03
     12.105  0.0000E+00  0.8960E+03
     12.187  0.0000E+00  0.8960E+03
     12.269  0.0000E+00  0.8960E+03
     12.351  0.0000E+00  0.8960E+03
     12.433  0.0000E+00  0.8960E+03
