nqpoint: 255    
npath: 5      
segment_nqpoint:
- 51
- 51
- 51
- 51
- 51
labels:
- [ '$Gamma$', 'A' ]
- [ 'A', 'H' ]
- [ 'H', 'K' ]
- [ 'K', 'L' ]
- [ 'L', 'M' ]
reciprocal_lattice:
- [   0.26513442,  -0.15307543,   0.00000000 ] # a*
- [   0.26513442,   0.15307543,   0.00000000 ] # b*
- [   0.00000000,   0.00000000,   0.16170699 ] # c*
natom: 4      
lattice:
- [     1.885835882396936,    -3.266363563047980,     0.000000000000000 ] # a
- [     1.885835882396936,     3.266363563047980,     0.000000000000000 ] # b
- [     0.000000000000000,     0.000000000000000,     6.184024668799145 ] # c
points:
- symbol: Zn # 1
  coordinates: [  0.333333333333336,  0.666666666666664,  0.000412486606820 ]
  mass: 65.380000
- symbol: Zn # 2
  coordinates: [  0.666666666666664,  0.333333333333336,  0.500412486606820 ]
  mass: 65.380000
- symbol: S # 3
  coordinates: [  0.333333333333336,  0.666666666666664,  0.374587513393180 ]
  mass: 32.065000
- symbol: S # 4
  coordinates: [  0.666666666666664,  0.333333333333336,  0.874587513393180 ]
  mass: 32.065000

phonon:
- q-position: [    0.0000000,    0.0000000,    0.0000000 ]
  distance:    0.0000000
  band:
  - # 1
    frequency:   -0.0000000357
  - # 2
    frequency:    0.0000000687
  - # 3
    frequency:    0.0000001417
  - # 4
    frequency:    1.8948436248
  - # 5
    frequency:    1.8948436248
  - # 6
    frequency:    5.9358500765
  - # 7
    frequency:    8.6538178126
  - # 8
    frequency:    8.7684589214
  - # 9
    frequency:    8.7684589214
  - # 10
    frequency:    9.0036000522
  - # 11
    frequency:    9.0036000522
  - # 12
    frequency:   10.5053394333

- q-position: [    0.0000000,    0.0000000,    0.0100000 ]
  distance:    0.0016171
  band:
  - # 1
    frequency:    0.0388151167
  - # 2
    frequency:    0.0388151167
  - # 3
    frequency:    0.1077390350
  - # 4
    frequency:    1.8947675730
  - # 5
    frequency:    1.8947675730
  - # 6
    frequency:    5.9349643770
  - # 7
    frequency:    8.6552147047
  - # 8
    frequency:    8.7684927012
  - # 9
    frequency:    8.7684927012
  - # 10
    frequency:    9.0035197227
  - # 11
    frequency:    9.0035197227
  - # 12
    frequency:   10.5058824974

- q-position: [    0.0000000,    0.0000000,    0.0200000 ]
  distance:    0.0032341
  band:
  - # 1
    frequency:    0.0776086447
  - # 2
    frequency:    0.0776086447
  - # 3
    frequency:    0.2154096096
  - # 4
    frequency:    1.8945390353
  - # 5
    frequency:    1.8945390353
  - # 6
    frequency:    5.9323104744
  - # 7
    frequency:    8.6594005588
  - # 8
    frequency:    8.7685940820
  - # 9
    frequency:    8.7685940820
  - # 10
    frequency:    9.0032788716
  - # 11
    frequency:    9.0032788716
  - # 12
    frequency:   10.5075066439

- q-position: [    0.0000000,    0.0000000,    0.0300000 ]
  distance:    0.0048512
  band:
  - # 1
    frequency:    0.1163590208
  - # 2
    frequency:    0.1163590208
  - # 3
    frequency:    0.3229434739
  - # 4
    frequency:    1.8941568666
  - # 5
    frequency:    1.8941568666
  - # 6
    frequency:    5.9278979008
  - # 7
    frequency:    8.6663609378
  - # 8
    frequency:    8.7687631879
  - # 9
    frequency:    8.7687631879
  - # 10
    frequency:    9.0028779109
  - # 11
    frequency:    9.0028779109
  - # 12
    frequency:   10.5101967949

- q-position: [    0.0000000,    0.0000000,    0.0400000 ]
  distance:    0.0064683
  band:
  - # 1
    frequency:    0.1550447321
  - # 2
    frequency:    0.1550447321
  - # 3
    frequency:    0.4302727976
  - # 4
    frequency:    1.8936191630
  - # 5
    frequency:    1.8936191630
  - # 6
    frequency:    5.9217423593
  - # 7
    frequency:    8.6760718800
  - # 8
    frequency:    8.7690002244
  - # 9
    frequency:    8.7690002244
  - # 10
    frequency:    9.0023175259
  - # 11
    frequency:    9.0023175259
  - # 12
    frequency:   10.5139280192

- q-position: [    0.0000000,    0.0000000,    0.0500000 ]
  distance:    0.0080853
  band:
  - # 1
    frequency:    0.1936443418
  - # 2
    frequency:    0.1936443418
  - # 3
    frequency:    0.5373303750
  - # 4
    frequency:    1.8929232686
  - # 5
    frequency:    1.8929232686
  - # 6
    frequency:    5.9138654537
  - # 7
    frequency:    8.6885000484
  - # 8
    frequency:    8.7693054771
  - # 9
    frequency:    8.7693054771
  - # 10
    frequency:    9.0015986744
  - # 11
    frequency:    9.0015986744
  - # 12
    frequency:   10.5186658241

- q-position: [    0.0000000,    0.0000000,    0.0600000 ]
  distance:    0.0097024
  band:
  - # 1
    frequency:    0.2321365141
  - # 2
    frequency:    0.2321365141
  - # 3
    frequency:    0.6440498259
  - # 4
    frequency:    1.8920657846
  - # 5
    frequency:    1.8920657846
  - # 6
    frequency:    5.9042943226
  - # 7
    frequency:    8.7036029364
  - # 8
    frequency:    8.7696793091
  - # 9
    frequency:    8.7696793091
  - # 10
    frequency:    9.0007225842
  - # 11
    frequency:    9.0007225842
  - # 12
    frequency:   10.5243665524

- q-position: [    0.0000000,    0.0000000,    0.0700000 ]
  distance:    0.0113195
  band:
  - # 1
    frequency:    0.2705000396
  - # 2
    frequency:    0.2705000396
  - # 3
    frequency:    0.7503657887
  - # 4
    frequency:    1.8910425818
  - # 5
    frequency:    1.8910425818
  - # 6
    frequency:    5.8930611873
  - # 7
    frequency:    8.7213291280
  - # 8
    frequency:    8.7701221580
  - # 9
    frequency:    8.7701221580
  - # 10
    frequency:    8.9996907504
  - # 11
    frequency:    8.9996907504
  - # 12
    frequency:   10.5309778746

- q-position: [    0.0000000,    0.0000000,    0.0800000 ]
  distance:    0.0129366
  band:
  - # 1
    frequency:    0.3087138602
  - # 2
    frequency:    0.3087138602
  - # 3
    frequency:    0.8562141065
  - # 4
    frequency:    1.8898488150
  - # 5
    frequency:    1.8898488150
  - # 6
    frequency:    5.8802028261
  - # 7
    frequency:    8.7416186093
  - # 8
    frequency:    8.7706345321
  - # 9
    frequency:    8.7706345321
  - # 10
    frequency:    8.9985049326
  - # 11
    frequency:    8.9985049326
  - # 12
    frequency:   10.5384393636

- q-position: [    0.0000000,    0.0000000,    0.0900000 ]
  distance:    0.0145536
  band:
  - # 1
    frequency:    0.3467570945
  - # 2
    frequency:    0.3467570945
  - # 3
    frequency:    0.9615320034
  - # 4
    frequency:    1.8884789403
  - # 5
    frequency:    1.8884789403
  - # 6
    frequency:    5.8657599917
  - # 7
    frequency:    8.7644031266
  - # 8
    frequency:    8.7712170067
  - # 9
    frequency:    8.7712170067
  - # 10
    frequency:    8.9971671506
  - # 11
    frequency:    8.9971671506
  - # 12
    frequency:   10.5466831367

- q-position: [    0.0000000,    0.0000000,    0.1000000 ]
  distance:    0.0161707
  band:
  - # 1
    frequency:    0.3846090626
  - # 2
    frequency:    0.3846090626
  - # 3
    frequency:    1.0662582506
  - # 4
    frequency:    1.8869267341
  - # 5
    frequency:    1.8869267341
  - # 6
    frequency:    5.8497767833
  - # 7
    frequency:    8.7718702184
  - # 8
    frequency:    8.7718702184
  - # 9
    frequency:    8.7896065885
  - # 10
    frequency:    8.9956796805
  - # 11
    frequency:    8.9956796805
  - # 12
    frequency:   10.5556345516

- q-position: [    0.0000000,    0.0000000,    0.1100000 ]
  distance:    0.0177878
  band:
  - # 1
    frequency:    0.4222493109
  - # 2
    frequency:    0.4222493109
  - # 3
    frequency:    1.1703333211
  - # 4
    frequency:    1.8851853156
  - # 5
    frequency:    1.8851853156
  - # 6
    frequency:    5.8322999923
  - # 7
    frequency:    8.7725948603
  - # 8
    frequency:    8.7725948603
  - # 9
    frequency:    8.8171455053
  - # 10
    frequency:    8.9940450495
  - # 11
    frequency:    8.9940450495
  - # 12
    frequency:   10.5652129407

- q-position: [    0.0000000,    0.0000000,    0.1200000 ]
  distance:    0.0194048
  band:
  - # 1
    frequency:    0.4596576372
  - # 2
    frequency:    0.4596576372
  - # 3
    frequency:    1.2736995323
  - # 4
    frequency:    1.8832471703
  - # 5
    frequency:    1.8832471703
  - # 6
    frequency:    5.8133784333
  - # 7
    frequency:    8.7733916754
  - # 8
    frequency:    8.7733916754
  - # 9
    frequency:    8.8469294624
  - # 10
    frequency:    8.9922660304
  - # 11
    frequency:    8.9922660304
  - # 12
    frequency:   10.5753323680

- q-position: [    0.0000000,    0.0000000,    0.1300000 ]
  distance:    0.0210219
  band:
  - # 1
    frequency:    0.4968141152
  - # 2
    frequency:    0.4968141152
  - # 3
    frequency:    1.3763011765
  - # 4
    frequency:    1.8811041763
  - # 5
    frequency:    1.8811041763
  - # 6
    frequency:    5.7930622774
  - # 7
    frequency:    8.7742614505
  - # 8
    frequency:    8.7742614505
  - # 9
    frequency:    8.8788616219
  - # 10
    frequency:    8.9903456353
  - # 11
    frequency:    8.9903456353
  - # 12
    frequency:   10.5859023971

- q-position: [    0.0000000,    0.0000000,    0.1400000 ]
  distance:    0.0226390
  band:
  - # 1
    frequency:    0.5336991187
  - # 2
    frequency:    0.5336991187
  - # 3
    frequency:    1.4780846384
  - # 4
    frequency:    1.8787476324
  - # 5
    frequency:    1.8787476324
  - # 6
    frequency:    5.7714023984
  - # 7
    frequency:    8.7752050084
  - # 8
    frequency:    8.7752050084
  - # 9
    frequency:    8.9128392469
  - # 10
    frequency:    8.9882871097
  - # 11
    frequency:    8.9882871097
  - # 12
    frequency:   10.5968288554

- q-position: [    0.0000000,    0.0000000,    0.1500000 ]
  distance:    0.0242560
  band:
  - # 1
    frequency:    0.5702933464
  - # 2
    frequency:    0.5702933464
  - # 3
    frequency:    1.5789984992
  - # 4
    frequency:    1.8761682880
  - # 5
    frequency:    1.8761682880
  - # 6
    frequency:    5.7484497445
  - # 7
    frequency:    8.7762232011
  - # 8
    frequency:    8.7762232011
  - # 9
    frequency:    8.9487542439
  - # 10
    frequency:    8.9860939242
  - # 11
    frequency:    8.9860939242
  - # 12
    frequency:   10.6080145852

- q-position: [    0.0000000,    0.0000000,    0.1600000 ]
  distance:    0.0258731
  band:
  - # 1
    frequency:    0.6065778458
  - # 2
    frequency:    0.6065778458
  - # 3
    frequency:    1.6789936284
  - # 4
    frequency:    1.8733563750
  - # 5
    frequency:    1.8733563750
  - # 6
    frequency:    5.7242547438
  - # 7
    frequency:    8.7773169007
  - # 8
    frequency:    8.7773169007
  - # 9
    frequency:    8.9837697679
  - # 10
    frequency:    8.9837697679
  - # 11
    frequency:    8.9864937179
  - # 12
    frequency:   10.6193601711

- q-position: [    0.0000000,    0.0000000,    0.1700000 ]
  distance:    0.0274902
  band:
  - # 1
    frequency:    0.6425340369
  - # 2
    frequency:    0.6425340369
  - # 3
    frequency:    1.7780232630
  - # 4
    frequency:    1.8703016405
  - # 5
    frequency:    1.8703016405
  - # 6
    frequency:    5.6988667524
  - # 7
    frequency:    8.7784869918
  - # 8
    frequency:    8.7784869918
  - # 9
    frequency:    8.9813185391
  - # 10
    frequency:    8.9813185391
  - # 11
    frequency:    9.0259405355
  - # 12
    frequency:   10.6307646383

- q-position: [    0.0000000,    0.0000000,    0.1800000 ]
  distance:    0.0291073
  band:
  - # 1
    frequency:    0.6781437361
  - # 2
    frequency:    0.6781437361
  - # 3
    frequency:    1.8669933820
  - # 4
    frequency:    1.8669933820
  - # 5
    frequency:    1.8760430734
  - # 6
    frequency:    5.6723335505
  - # 7
    frequency:    8.7797343619
  - # 8
    frequency:    8.7797343619
  - # 9
    frequency:    8.9787443375
  - # 10
    frequency:    8.9787443375
  - # 11
    frequency:    9.0669738904
  - # 12
    frequency:   10.6421261131

- q-position: [    0.0000000,    0.0000000,    0.1900000 ]
  distance:    0.0307243
  band:
  - # 1
    frequency:    0.7133891791
  - # 2
    frequency:    0.7133891791
  - # 3
    frequency:    1.8634204833
  - # 4
    frequency:    1.8634204833
  - # 5
    frequency:    1.9730112190
  - # 6
    frequency:    5.6447008898
  - # 7
    frequency:    8.7810598925
  - # 8
    frequency:    8.7810598925
  - # 9
    frequency:    8.9760514539
  - # 10
    frequency:    8.9760514539
  - # 11
    frequency:    9.1094698685
  - # 12
    frequency:   10.6533424442

- q-position: [    0.0000000,    0.0000000,    0.2000000 ]
  distance:    0.0323414
  band:
  - # 1
    frequency:    0.7482530444
  - # 2
    frequency:    0.7482530444
  - # 3
    frequency:    1.8595714515
  - # 4
    frequency:    1.8595714515
  - # 5
    frequency:    2.0688883910
  - # 6
    frequency:    5.6160120964
  - # 7
    frequency:    8.7824644492
  - # 8
    frequency:    8.7824644492
  - # 9
    frequency:    8.9732443612
  - # 10
    frequency:    8.9732443612
  - # 11
    frequency:    9.1533020066
  - # 12
    frequency:   10.6643117811

- q-position: [    0.0000000,    0.0000000,    0.2100000 ]
  distance:    0.0339585
  band:
  - # 1
    frequency:    0.7827184753
  - # 2
    frequency:    0.7827184753
  - # 3
    frequency:    1.8554344552
  - # 4
    frequency:    1.8554344552
  - # 5
    frequency:    2.1636378460
  - # 6
    frequency:    5.5863077287
  - # 7
    frequency:    8.7839488722
  - # 8
    frequency:    8.7839488722
  - # 9
    frequency:    8.9703277037
  - # 10
    frequency:    8.9703277037
  - # 11
    frequency:    9.1983418430
  - # 12
    frequency:   10.6749331078

- q-position: [    0.0000000,    0.0000000,    0.2200000 ]
  distance:    0.0355755
  band:
  - # 1
    frequency:    0.8167691026
  - # 2
    frequency:    0.8167691026
  - # 3
    frequency:    1.8509973639
  - # 4
    frequency:    1.8509973639
  - # 5
    frequency:    2.2572254288
  - # 6
    frequency:    5.5556252913
  - # 7
    frequency:    8.7855139657
  - # 8
    frequency:    8.7855139657
  - # 9
    frequency:    8.9673062865
  - # 10
    frequency:    8.9673062865
  - # 11
    frequency:    9.2444594551
  - # 12
    frequency:   10.6851067334

- q-position: [    0.0000000,    0.0000000,    0.2300000 ]
  distance:    0.0371926
  band:
  - # 1
    frequency:    0.8503890657
  - # 2
    frequency:    0.8503890657
  - # 3
    frequency:    1.8462477873
  - # 4
    frequency:    1.8462477873
  - # 5
    frequency:    2.3496195864
  - # 6
    frequency:    5.5239990032
  - # 7
    frequency:    8.7871604883
  - # 8
    frequency:    8.7871604883
  - # 9
    frequency:    8.9641850641
  - # 10
    frequency:    8.9641850641
  - # 11
    frequency:    9.2915239815
  - # 12
    frequency:   10.6947347381

- q-position: [    0.0000000,    0.0000000,    0.2400000 ]
  distance:    0.0388097
  band:
  - # 1
    frequency:    0.8835630346
  - # 2
    frequency:    0.8835630346
  - # 3
    frequency:    1.8411731159
  - # 4
    frequency:    1.8411731159
  - # 5
    frequency:    2.4407913740
  - # 6
    frequency:    5.4914596186
  - # 7
    frequency:    8.7888891419
  - # 8
    frequency:    8.7888891419
  - # 9
    frequency:    8.9609691294
  - # 10
    frequency:    8.9609691294
  - # 11
    frequency:    9.3394041275
  - # 12
    frequency:   10.7037213786

- q-position: [    0.0000000,    0.0000000,    0.2500000 ]
  distance:    0.0404267
  band:
  - # 1
    frequency:    0.9162762295
  - # 2
    frequency:    0.9162762295
  - # 3
    frequency:    1.8357605620
  - # 4
    frequency:    1.8357605620
  - # 5
    frequency:    2.5307144532
  - # 6
    frequency:    5.4580342981
  - # 7
    frequency:    8.7907005615
  - # 8
    frequency:    8.7907005615
  - # 9
    frequency:    8.9576637009
  - # 10
    frequency:    8.9576637009
  - # 11
    frequency:    9.3879686491
  - # 12
    frequency:   10.7119734526

- q-position: [    0.0000000,    0.0000000,    0.2600000 ]
  distance:    0.0420438
  band:
  - # 1
    frequency:    0.9485144419
  - # 2
    frequency:    0.9485144419
  - # 3
    frequency:    1.8299972007
  - # 4
    frequency:    1.8299972007
  - # 5
    frequency:    2.6193650827
  - # 6
    frequency:    5.4237465258
  - # 7
    frequency:    8.7925953051
  - # 8
    frequency:    8.7925953051
  - # 9
    frequency:    8.9542741110
  - # 10
    frequency:    8.9542741110
  - # 11
    frequency:    9.4370868170
  - # 12
    frequency:   10.7194006275

- q-position: [    0.0000000,    0.0000000,    0.2700000 ]
  distance:    0.0436609
  band:
  - # 1
    frequency:    0.9802640530
  - # 2
    frequency:    0.9802640530
  - # 3
    frequency:    1.8238700113
  - # 4
    frequency:    1.8238700113
  - # 5
    frequency:    2.7067221037
  - # 6
    frequency:    5.3886160714
  - # 7
    frequency:    8.7945738426
  - # 8
    frequency:    8.7945738426
  - # 9
    frequency:    8.9508057933
  - # 10
    frequency:    8.9508057933
  - # 11
    frequency:    9.4866288569
  - # 12
    frequency:   10.7259157329

- q-position: [    0.0000000,    0.0000000,    0.2800000 ]
  distance:    0.0452780
  band:
  - # 1
    frequency:    1.0115120529
  - # 2
    frequency:    1.0115120529
  - # 3
    frequency:    1.8173659185
  - # 4
    frequency:    1.8173659185
  - # 5
    frequency:    2.7927669192
  - # 6
    frequency:    5.3526589917
  - # 7
    frequency:    8.7966365458
  - # 8
    frequency:    8.7966365458
  - # 9
    frequency:    8.9472642691
  - # 10
    frequency:    8.9472642691
  - # 11
    frequency:    9.5364663668
  - # 12
    frequency:   10.7314350230

- q-position: [    0.0000000,    0.0000000,    0.2900000 ]
  distance:    0.0468950
  band:
  - # 1
    frequency:    1.0422460584
  - # 2
    frequency:    1.0422460584
  - # 3
    frequency:    1.8104718342
  - # 4
    frequency:    1.8104718342
  - # 5
    frequency:    2.8774834681
  - # 6
    frequency:    5.3158876679
  - # 7
    frequency:    8.7987836779
  - # 8
    frequency:    8.7987836779
  - # 9
    frequency:    8.9436551348
  - # 10
    frequency:    8.9436551348
  - # 11
    frequency:    9.5864727090
  - # 12
    frequency:   10.7358784086

- q-position: [    0.0000000,    0.0000000,    0.3000000 ]
  distance:    0.0485121
  band:
  - # 1
    frequency:    1.0724543300
  - # 2
    frequency:    1.0724543300
  - # 3
    frequency:    1.8031746983
  - # 4
    frequency:    1.8031746983
  - # 5
    frequency:    2.9608581946
  - # 6
    frequency:    5.2783108767
  - # 7
    frequency:    8.8010153839
  - # 8
    frequency:    8.8010153839
  - # 9
    frequency:    8.9399840481
  - # 10
    frequency:    8.9399840481
  - # 11
    frequency:    9.6365233785
  - # 12
    frequency:   10.7391696646

- q-position: [    0.0000000,    0.0000000,    0.3100000 ]
  distance:    0.0501292
  band:
  - # 1
    frequency:    1.1021257877
  - # 2
    frequency:    1.1021257877
  - # 3
    frequency:    1.7954615198
  - # 4
    frequency:    1.7954615198
  - # 5
    frequency:    3.0428800137
  - # 6
    frequency:    5.2399338896
  - # 7
    frequency:    8.8033316804
  - # 8
    frequency:    8.8033316804
  - # 9
    frequency:    8.9362567145
  - # 10
    frequency:    8.9362567145
  - # 11
    frequency:    9.6864963460
  - # 12
    frequency:   10.7412366126

- q-position: [    0.0000000,    0.0000000,    0.3200000 ]
  distance:    0.0517462
  band:
  - # 1
    frequency:    1.1312500268
  - # 2
    frequency:    1.1312500268
  - # 3
    frequency:    1.7873194168
  - # 4
    frequency:    1.7873194168
  - # 5
    frequency:    3.1235402716
  - # 6
    frequency:    5.2007585982
  - # 7
    frequency:    8.8057324462
  - # 8
    frequency:    8.8057324462
  - # 9
    frequency:    8.9324788736
  - # 10
    frequency:    8.9324788736
  - # 11
    frequency:    9.7362723766
  - # 12
    frequency:   10.7420112838

- q-position: [    0.0000000,    0.0000000,    0.3300000 ]
  distance:    0.0533633
  band:
  - # 1
    frequency:    1.1598173317
  - # 2
    frequency:    1.1598173317
  - # 3
    frequency:    1.7787356570
  - # 4
    frequency:    1.7787356570
  - # 5
    frequency:    3.2028327033
  - # 6
    frequency:    5.1607836610
  - # 7
    frequency:    8.8082174135
  - # 8
    frequency:    8.8082174135
  - # 9
    frequency:    8.9286562850
  - # 10
    frequency:    8.9286562850
  - # 11
    frequency:    9.7857353250
  - # 12
    frequency:   10.7414300628

- q-position: [    0.0000000,    0.0000000,    0.3400000 ]
  distance:    0.0549804
  band:
  - # 1
    frequency:    1.1878186888
  - # 2
    frequency:    1.1878186888
  - # 3
    frequency:    1.7696976968
  - # 4
    frequency:    1.7696976968
  - # 5
    frequency:    3.2807533852
  - # 6
    frequency:    5.1200046700
  - # 7
    frequency:    8.8107861588
  - # 8
    frequency:    8.8107861588
  - # 9
    frequency:    8.9247947148
  - # 10
    frequency:    8.9247947148
  - # 11
    frequency:    9.8347724059
  - # 12
    frequency:   10.7394338149

- q-position: [    0.0000000,    0.0000000,    0.3500000 ]
  distance:    0.0565974
  band:
  - # 1
    frequency:    1.2152457993
  - # 2
    frequency:    1.2152457993
  - # 3
    frequency:    1.7601932196
  - # 4
    frequency:    1.7601932196
  - # 5
    frequency:    3.3573006852
  - # 6
    frequency:    5.0784143319
  - # 7
    frequency:    8.8134380951
  - # 8
    frequency:    8.8134380951
  - # 9
    frequency:    8.9208999213
  - # 10
    frequency:    8.9208999213
  - # 11
    frequency:    9.8832744431
  - # 12
    frequency:   10.7359679993

- q-position: [    0.0000000,    0.0000000,    0.3600000 ]
  distance:    0.0582145
  band:
  - # 1
    frequency:    1.2420910889
  - # 2
    frequency:    1.2420910889
  - # 3
    frequency:    1.7502101739
  - # 4
    frequency:    1.7502101739
  - # 5
    frequency:    3.4324752071
  - # 6
    frequency:    5.0360026634
  - # 7
    frequency:    8.8161724638
  - # 8
    frequency:    8.8161724638
  - # 9
    frequency:    8.9169776417
  - # 10
    frequency:    8.9169776417
  - # 11
    frequency:    9.9311360956
  - # 12
    frequency:   10.7309827695

- q-position: [    0.0000000,    0.0000000,    0.3700000 ]
  distance:    0.0598316
  band:
  - # 1
    frequency:    1.2683477184
  - # 2
    frequency:    1.2683477184
  - # 3
    frequency:    1.7397368100
  - # 4
    frequency:    1.7397368100
  - # 5
    frequency:    3.5062797326
  - # 6
    frequency:    4.9927571960
  - # 7
    frequency:    8.8189883281
  - # 8
    frequency:    8.8189883281
  - # 9
    frequency:    8.9130335776
  - # 10
    frequency:    8.9130335776
  - # 11
    frequency:    9.9782560631
  - # 12
    frequency:   10.7244330627

- q-position: [    0.0000000,    0.0000000,    0.3800000 ]
  distance:    0.0614487
  band:
  - # 1
    frequency:    1.2940095912
  - # 2
    frequency:    1.2940095912
  - # 3
    frequency:    1.7287617158
  - # 4
    frequency:    1.7287617158
  - # 5
    frequency:    3.5787191577
  - # 6
    frequency:    4.9486631886
  - # 7
    frequency:    8.8218845662
  - # 8
    frequency:    8.8218845662
  - # 9
    frequency:    8.9090733822
  - # 10
    frequency:    8.9090733822
  - # 11
    frequency:   10.0245372717
  - # 12
    frequency:   10.7162786782

- q-position: [    0.0000000,    0.0000000,    0.3900000 ]
  distance:    0.0630657
  band:
  - # 1
    frequency:    1.3190713607
  - # 2
    frequency:    1.3190713607
  - # 3
    frequency:    1.7172738517
  - # 4
    frequency:    1.7172738517
  - # 5
    frequency:    3.6498004253
  - # 6
    frequency:    4.9037038460
  - # 7
    frequency:    8.8248598656
  - # 8
    frequency:    8.8248598656
  - # 9
    frequency:    8.9051026467
  - # 10
    frequency:    8.9051026467
  - # 11
    frequency:   10.0698870402
  - # 12
    frequency:   10.7064843491

- q-position: [    0.0000000,    0.0000000,    0.4000000 ]
  distance:    0.0646828
  band:
  - # 1
    frequency:    1.3435284355
  - # 2
    frequency:    1.3435284355
  - # 3
    frequency:    1.7052625841
  - # 4
    frequency:    1.7052625841
  - # 5
    frequency:    3.7195324524
  - # 6
    frequency:    4.8578605408
  - # 7
    frequency:    8.8279127178
  - # 8
    frequency:    8.8279127178
  - # 9
    frequency:    8.9011268869
  - # 10
    frequency:    8.9011268869
  - # 11
    frequency:   10.1142172287
  - # 12
    frequency:   10.6950198040

- q-position: [    0.0000000,    0.0000000,    0.4100000 ]
  distance:    0.0662999
  band:
  - # 1
    frequency:    1.3673769838
  - # 2
    frequency:    1.3673769838
  - # 3
    frequency:    1.6927177179
  - # 4
    frequency:    1.6927177179
  - # 5
    frequency:    3.7879260522
  - # 6
    frequency:    4.8111130368
  - # 7
    frequency:    8.8310414144
  - # 8
    frequency:    8.8310414144
  - # 9
    frequency:    8.8971515310
  - # 10
    frequency:    8.8971515310
  - # 11
    frequency:   10.1574443710
  - # 12
    frequency:   10.6818598237

- q-position: [    0.0000000,    0.0000000,    0.4200000 ]
  distance:    0.0679169
  band:
  - # 1
    frequency:    1.3906139354
  - # 2
    frequency:    1.3906139354
  - # 3
    frequency:    1.6796295278
  - # 4
    frequency:    1.6796295278
  - # 5
    frequency:    3.8549938510
  - # 6
    frequency:    4.7634397120
  - # 7
    frequency:    8.8342440433
  - # 8
    frequency:    8.8342440433
  - # 9
    frequency:    8.8931819068
  - # 10
    frequency:    8.8931819068
  - # 11
    frequency:   10.1994897900
  - # 12
    frequency:   10.6669842898

- q-position: [    0.0000000,    0.0000000,    0.4300000 ]
  distance:    0.0695340
  band:
  - # 1
    frequency:    1.4132369836
  - # 2
    frequency:    1.4132369836
  - # 3
    frequency:    1.6659887874
  - # 4
    frequency:    1.6659887874
  - # 5
    frequency:    3.9207501981
  - # 6
    frequency:    4.7148177805
  - # 7
    frequency:    8.8375184858
  - # 8
    frequency:    8.8375184858
  - # 9
    frequency:    8.8892232302
  - # 10
    frequency:    8.8892232302
  - # 11
    frequency:   10.2402796997
  - # 12
    frequency:   10.6503782290

- q-position: [    0.0000000,    0.0000000,    0.4400000 ]
  distance:    0.0711511
  band:
  - # 1
    frequency:    1.4352445838
  - # 2
    frequency:    1.4352445838
  - # 3
    frequency:    1.6517867983
  - # 4
    frequency:    1.6517867983
  - # 5
    frequency:    3.9852110708
  - # 6
    frequency:    4.6652235115
  - # 7
    frequency:    8.8408624151
  - # 8
    frequency:    8.8408624151
  - # 9
    frequency:    8.8852805932
  - # 10
    frequency:    8.8852805932
  - # 11
    frequency:   10.2797452931
  - # 12
    frequency:   10.6320318512

- q-position: [    0.0000000,    0.0000000,    0.4500000 ]
  distance:    0.0727681
  band:
  - # 1
    frequency:    1.4566359519
  - # 2
    frequency:    1.4566359519
  - # 3
    frequency:    1.6370154167
  - # 4
    frequency:    1.6370154167
  - # 5
    frequency:    4.0483939709
  - # 6
    frequency:    4.6146324436
  - # 7
    frequency:    8.8442732946
  - # 8
    frequency:    8.8442732946
  - # 9
    frequency:    8.8813589535
  - # 10
    frequency:    8.8813589535
  - # 11
    frequency:   10.3178228175
  - # 12
    frequency:   10.6119405824

- q-position: [    0.0000000,    0.0000000,    0.4600000 ]
  distance:    0.0743852
  band:
  - # 1
    frequency:    1.4774110603
  - # 2
    frequency:    1.4774110603
  - # 3
    frequency:    1.6216670787
  - # 4
    frequency:    1.6216670787
  - # 5
    frequency:    4.1103178156
  - # 6
    frequency:    4.5630195948
  - # 7
    frequency:    8.8477483787
  - # 8
    frequency:    8.8477483787
  - # 9
    frequency:    8.8774631239
  - # 10
    frequency:    8.8774631239
  - # 11
    frequency:   10.3544536383
  - # 12
    frequency:   10.5901050925

- q-position: [    0.0000000,    0.0000000,    0.4700000 ]
  distance:    0.0760023
  band:
  - # 1
    frequency:    1.4975706326
  - # 2
    frequency:    1.4975706326
  - # 3
    frequency:    1.6057348242
  - # 4
    frequency:    1.6057348242
  - # 5
    frequency:    4.1710028204
  - # 6
    frequency:    4.5103596661
  - # 7
    frequency:    8.8512847124
  - # 8
    frequency:    8.8512847124
  - # 9
    frequency:    8.8735977628
  - # 10
    frequency:    8.8735977628
  - # 11
    frequency:   10.3895842918
  - # 12
    frequency:   10.5665313190

- q-position: [    0.0000000,    0.0000000,    0.4800000 ]
  distance:    0.0776194
  band:
  - # 1
    frequency:    1.5171161364
  - # 2
    frequency:    1.5171161364
  - # 3
    frequency:    1.5892123193
  - # 4
    frequency:    1.5892123193
  - # 5
    frequency:    4.2304703738
  - # 6
    frequency:    4.4566272384
  - # 7
    frequency:    8.8548791338
  - # 8
    frequency:    8.8548791338
  - # 9
    frequency:    8.8697673648
  - # 10
    frequency:    8.8697673648
  - # 11
    frequency:   10.4231665283
  - # 12
    frequency:   10.5412304843

- q-position: [    0.0000000,    0.0000000,    0.4900000 ]
  distance:    0.0792364
  band:
  - # 1
    frequency:    1.5360497746
  - # 2
    frequency:    1.5360497746
  - # 3
    frequency:    1.5720938767
  - # 4
    frequency:    1.5720938767
  - # 5
    frequency:    4.2887429048
  - # 6
    frequency:    4.4017969625
  - # 7
    frequency:    8.8585282761
  - # 8
    frequency:    8.8585282761
  - # 9
    frequency:    8.8659762530
  - # 10
    frequency:    8.8659762530
  - # 11
    frequency:   10.4551573464
  - # 12
    frequency:   10.5142191088

- q-position: [    0.0000000,    0.0000000,    0.5000000 ]
  distance:    0.0808535
  band:
  - # 1
    frequency:    1.5543744746
  - # 2
    frequency:    1.5543744746
  - # 3
    frequency:    1.5543744746
  - # 4
    frequency:    1.5543744746
  - # 5
    frequency:    4.3458437415
  - # 6
    frequency:    4.3458437415
  - # 7
    frequency:    8.8622285709
  - # 8
    frequency:    8.8622285709
  - # 9
    frequency:    8.8622285709
  - # 10
    frequency:    8.8622285709
  - # 11
    frequency:   10.4855190185
  - # 12
    frequency:   10.4855190185

- q-position: [    0.0000000,    0.0000000,    0.5000000 ]
  distance:    0.0808535
  band:
  - # 1
    frequency:    1.5543744746
  - # 2
    frequency:    1.5543744746