72   
4    

1    
  0.0033749968256213  -0.0058456659773597   0.0073781830899067
  -0.0253226300    0.0444353800   -0.0570571200
   0.0014206300   -0.0028560300   -0.0008808100
   0.0001794800   -0.0057604600   -0.0026314100
  -0.0008266200   -0.0017336400   -0.0010124800
   0.0000360000    0.0028279100   -0.0024882900
   0.0004399600   -0.0007324100   -0.0007686100
  -0.0020543500   -0.0013370200   -0.0001382200
   0.0004448700   -0.0007343100   -0.0007696400
   0.0041274600    0.0040926500   -0.0033586500
   0.0000701900   -0.0000863100    0.0021261400
   0.0003431700   -0.0001341100    0.0001695000
   0.0001585300    0.0007028900    0.0009184800
  -0.0001780200    0.0005318300    0.0004597500
   0.0004740200   -0.0002434100    0.0006248600
   0.0000409900   -0.0000390100    0.0003944200
  -0.0003613500   -0.0000461600    0.0000821600
   0.0000414500   -0.0000379700    0.0003962300
  -0.0005661900   -0.0003730500    0.0010029200
   0.0000788200   -0.0046250900    0.0030691500
  -0.0000753400   -0.0008787300    0.0003680200
  -0.0054999600    0.0030591300    0.0004987500
   0.0047994100    0.0025605900    0.0017825200
   0.0006060500    0.0000253300    0.0003558100
  -0.0003466400    0.0001357200    0.0001607500
   0.0004272700   -0.0006750900    0.0003867000
   0.0003507900    0.0002661300    0.0003544000
  -0.0006320200    0.0004097400    0.0002588600
   0.0000847600    0.0024292100   -0.0025445500
   0.0003654800   -0.0006223800    0.0003686200
   0.0005990400   -0.0004626600    0.0060882900
  -0.0013026800   -0.0009627200    0.0017768900
   0.0002145300    0.0002501800   -0.0000037100
  -0.0003443500   -0.0003167100    0.0005169500
  -0.0000159700   -0.0004215000   -0.0000221400
   0.0003512100   -0.0002428200    0.0007610500
  -0.0002412200    0.0006347900    0.0002555400
   0.0010464900   -0.0017508500    0.0374402000
  -0.0005578100    0.0011181100   -0.0001972300
   0.0005175300    0.0000116500    0.0010419500
  -0.0003877200   -0.0004713000    0.0004430500
  -0.0008937900   -0.0003888600    0.0004441700
  -0.0000425300    0.0000871200    0.0001858700
   0.0006267500    0.0009147200   -0.0001878600
  -0.0001297400    0.0002319300    0.0002121700
   0.0003972800   -0.0005850700    0.0010507800
   0.0003640100   -0.0005911100   -0.0013611500
  -0.0004974300    0.0001942400    0.0003899000
  -0.0000567700    0.0005045300   -0.0012968000
   0.0002463200   -0.0000335300   -0.0002170700
  -0.0000435100   -0.0000616100   -0.0006403100
  -0.0000192600    0.0000542600   -0.0002832600
   0.0006005700    0.0000574800    0.0006017600
  -0.0001376300    0.0002459500   -0.0003297000
  -0.0003902800   -0.0003368600   -0.0014877800
  -0.0000354100    0.0004273300   -0.0012641500
  -0.0001052800    0.0001992100   -0.0002503100
   0.0010659600   -0.0005588900   -0.0018692200
  -0.0007544600   -0.0003631400   -0.0015908600
  -0.0002175200   -0.0000508000   -0.0002107900
   0.0001133900   -0.0000613800   -0.0002155100
  -0.0000056000    0.0001532600   -0.0002137400
  -0.0001128100    0.0000881100   -0.0003188800
   0.0002366800   -0.0001898500   -0.0002112400
   0.0006690500   -0.0144328100   -0.0030607400
  -0.0007187500    0.0017401700    0.0002502000
   0.0312882600   -0.0189052000    0.0144664600
  -0.0092559500   -0.0069627000    0.0058637100
  -0.0004186600   -0.0001757800    0.0003062300
   0.0003318900    0.0010820500    0.0002580400
   0.0003301500    0.0008922700    0.0000840300
  -0.0009332100   -0.0003147500    0.0003885000
  -0.0000070000   -0.0008077900    0.0002784100

1    
 -0.0033749968256213   0.0058456659773597  -0.0073781830899067
   0.0265784200   -0.0454024800    0.0557625900
  -0.0014143700    0.0028999400    0.0008962100
  -0.0001900800    0.0058372800    0.0026485300
   0.0008361300    0.0017897600    0.0010347600
  -0.0000267300   -0.0027709800    0.0025093500
  -0.0004421400    0.0007941400    0.0007902200
   0.0020681800    0.0013996100    0.0001558700
  -0.0004346700    0.0007926800    0.0007848200
  -0.0041328600   -0.0040351600    0.0033821900
  -0.0000603100    0.0001507400   -0.0021178900
  -0.0003358000    0.0001952500   -0.0001472200
  -0.0001539400   -0.0006417800   -0.0008885400
   0.0001902600   -0.0004758100   -0.0004292300
  -0.0004753600    0.0003076100   -0.0006087100
  -0.0000418300    0.0000975600   -0.0003685600
   0.0003724800    0.0000998000   -0.0000624100
  -0.0000412400    0.0001024200   -0.0003782900
   0.0005700400    0.0004389600   -0.0009782700
  -0.0000735800    0.0045702800   -0.0030075200
   0.0000843000    0.0008197000   -0.0003460700
   0.0054937700   -0.0031064500   -0.0004764200
  -0.0047951300   -0.0026174600   -0.0017382700
  -0.0006002000   -0.0000809500   -0.0003275400
   0.0003462700   -0.0001904700   -0.0001341000
  -0.0004208800    0.0006183100   -0.0003571900
  -0.0003437700   -0.0003239300   -0.0003296300
   0.0006330000   -0.0004654300   -0.0002376400
  -0.0000745700   -0.0024898900    0.0025763300
  -0.0003599300    0.0005659900   -0.0003465400
  -0.0006288400    0.0004288400   -0.0060797400
   0.0013225200    0.0009175600   -0.0017483400
  -0.0002134600   -0.0003069700    0.0000303900
   0.0003520000    0.0002540400   -0.0004920600
   0.0000176500    0.0003650800    0.0000478200
  -0.0003449700    0.0001914800   -0.0007357000
   0.0002483700   -0.0006908000   -0.0002324600
  -0.0010923600    0.0019294700   -0.0361135500
   0.0005604200   -0.0010938600    0.0001874300
  -0.0005117300    0.0000357300   -0.0010772000
   0.0003921900    0.0004925700   -0.0004515300
   0.0009053200    0.0004224100   -0.0004297800
   0.0000481900   -0.0000680200   -0.0002037400
  -0.0006183000   -0.0008920100    0.0001785900
   0.0001363900   -0.0002196400   -0.0002218600
  -0.0004214300    0.0006028400   -0.0010680200
  -0.0003534200    0.0006363700    0.0013465500
   0.0005146500   -0.0001775100   -0.0004065000
   0.0000633200   -0.0004865600    0.0012700900
  -0.0002304300    0.0000504200    0.0002404400
   0.0000437100    0.0000880500    0.0006329900
   0.0000255800   -0.0000285100    0.0002634900
  -0.0006066300   -0.0000525500   -0.0006068500
   0.0001342300   -0.0002190300    0.0003255600
   0.0004002500    0.0003607800    0.0014721600
   0.0000477600   -0.0004521800    0.0012613500
   0.0001245000   -0.0002195800    0.0002388000
  -0.0010620400    0.0005548900    0.0018891800
   0.0007624200    0.0003158700    0.0015692800
   0.0002315600    0.0000218200    0.0001990900
  -0.0001499000    0.0000672100    0.0001909100
   0.0000375200   -0.0001594000    0.0001834700
   0.0001237200   -0.0001072500    0.0002898300
  -0.0002492500    0.0001729500    0.0002005400
  -0.0007024900    0.0144769100    0.0029547300
   0.0007354700   -0.0017719600   -0.0002598000
  -0.0327351200    0.0196160500   -0.0148900500
   0.0092075700    0.0068474200   -0.0057927700
   0.0004357100    0.0001364500   -0.0003301900
  -0.0003426700   -0.0011053800   -0.0002657100
  -0.0003185800   -0.0009151400   -0.0001197200
   0.0009504100    0.0003127600   -0.0004115300
   0.0000047000    0.0007891600   -0.0002964400

37   
  0.0033749968256213  -0.0058456659773597   0.0073781830899067
   0.0011177500   -0.0019164400    0.0361338900
   0.0003497000   -0.0000149900    0.0011671300
  -0.0001519000    0.0012854400   -0.0002139900
   0.0002197700    0.0007898600   -0.0000737500
   0.0006082500   -0.0005564800    0.0010174400
  -0.0001340000    0.0002569600    0.0002545000
  -0.0002154200   -0.0001837300    0.0006141100
  -0.0000438900    0.0001040900    0.0002301000
  -0.0010869900   -0.0006617400    0.0003246700
   0.0003581800   -0.0005948600   -0.0013188800
  -0.0015160800    0.0007181200   -0.0004228500
  -0.0002810800   -0.0006909600   -0.0003861900
   0.0003855400   -0.0012739900   -0.0003327700
  -0.0009020200    0.0006137500   -0.0004741400
  -0.0001329800    0.0002557900   -0.0002972800
   0.0017000100    0.0006332300   -0.0003528300
  -0.0000214800    0.0000691600   -0.0002290600
   0.0004671800    0.0004344200   -0.0004512800
   0.0006293000   -0.0379230100    0.0151193500
  -0.0010996000    0.0015152100    0.0002903000
   0.0124012100   -0.0080299700   -0.0031351800
   0.0103387200    0.0043703300    0.0058245300
  -0.0008083900    0.0000373500    0.0000146700
   0.0003404300    0.0006265900    0.0006438400
   0.0007022100    0.0006547300    0.0004937100
  -0.0009435000    0.0000772300    0.0000949900
   0.0003764400   -0.0006043700    0.0003292100
  -0.0000408000   -0.0000158300   -0.0008932800
  -0.0000632800    0.0002127700   -0.0002084100
   0.0006953800   -0.0003834800   -0.0021863400
  -0.0003869700   -0.0001559600   -0.0015406000
  -0.0001159600   -0.0001290500   -0.0000701900
   0.0001424600    0.0000286600   -0.0002693900
  -0.0000798300    0.0001547500   -0.0002111300
  -0.0001190200   -0.0000011500   -0.0002074100
   0.0001389000   -0.0002761500   -0.0001719200
  -0.0347845700    0.0613347600   -0.0780888600
   0.0023279400   -0.0057890100   -0.0001492400
   0.0037321300   -0.0059175100   -0.0009824200
  -0.0021997400   -0.0036303500   -0.0005145000
   0.0033435200    0.0007317700   -0.0005950200
   0.0001253400   -0.0001975400   -0.0001766200
  -0.0007654600   -0.0022682700   -0.0001018500
   0.0001197300   -0.0001913300   -0.0001764000
   0.0032325000    0.0001388500   -0.0010172300
  -0.0001046300    0.0001827700    0.0007055500
   0.0002345300   -0.0001253000    0.0007688400
   0.0000118600   -0.0001663700    0.0008219700
  -0.0000634600    0.0001033800    0.0008143900
   0.0000482500    0.0000595000    0.0008132400
   0.0000329400   -0.0000559000    0.0001304900
  -0.0002947700   -0.0000986300    0.0007709100
   0.0000242500   -0.0000452500    0.0001530600
   0.0001545500    0.0001738800    0.0008353400
  -0.0003532700   -0.0048434100    0.0061853700
   0.0002819600   -0.0002432200   -0.0000281300
  -0.0014155200    0.0012308100    0.0028431500
   0.0025249400    0.0022618900    0.0044845800
   0.0003662300   -0.0001442200    0.0001750800
  -0.0000976800    0.0000659700   -0.0001033300
  -0.0001958600   -0.0000794400   -0.0001016100
   0.0001754100   -0.0001055800    0.0000283900
  -0.0002755400    0.0000072000    0.0000295100
  -0.0003516200    0.0006231200    0.0018445500
   0.0001053600   -0.0003576800   -0.0000292400
   0.0032430700   -0.0014678100    0.0070680800
  -0.0021680000   -0.0004442900    0.0044705400
   0.0000277100    0.0000569400   -0.0001453800
  -0.0000841800   -0.0003428400    0.0002077000
  -0.0000317500   -0.0001919000    0.0000515600
   0.0001757100    0.0001022900   -0.0001338200
   0.0000698900    0.0002064100    0.0000357500

37   
 -0.0033749968256213   0.0058456659773597  -0.0073781830899067
  -0.0010067500    0.0017618700   -0.0374635300
  -0.0003454200    0.0000733900   -0.0011300400
   0.0001525700   -0.0012260400    0.0002552200
  -0.0002274100   -0.0007348800    0.0001041100
  -0.0006043400    0.0006136300   -0.0009853500
   0.0001300400   -0.0002002800   -0.0002246900
   0.0002165300    0.0002499600   -0.0005879700
   0.0000513100   -0.0000532900   -0.0002033300
   0.0010804200    0.0007251800   -0.0002933500
  -0.0003613300    0.0006535900    0.0013482700
   0.0015076600   -0.0006566900    0.0004589000
   0.0002814800    0.0007457600    0.0004195400
  -0.0003841000    0.0013271100    0.0003705300
   0.0008987800   -0.0005532300    0.0005034800
   0.0001310800   -0.0001985300    0.0003310200
  -0.0016865000   -0.0005741200    0.0003874300
   0.0000205300   -0.0000093600    0.0002652700
  -0.0004652100   -0.0003732900    0.0004890600
  -0.0007438600    0.0362230800   -0.0147215000
   0.0011154000   -0.0015701300   -0.0002611700
  -0.0124507400    0.0079070700    0.0032852800
  -0.0103646800   -0.0044030500   -0.0058842900
   0.0008059900   -0.0000978400    0.0000240100
  -0.0003510300   -0.0006845300   -0.0006088000
  -0.0006995100   -0.0007183000   -0.0004502300
   0.0009463300   -0.0001419700   -0.0000580300
  -0.0003826000    0.0005535900   -0.0002944000
   0.0000427500   -0.0000463400    0.0009193200
   0.0000635100   -0.0002688200    0.0002400100
  -0.0007063000    0.0003290900    0.0022205100
   0.0003880500    0.0001008300    0.0015707600
   0.0001121900    0.0000664100    0.0001008200
  -0.0001425600   -0.0000871500    0.0002995200
   0.0000788400   -0.0002131900    0.0002366800
   0.0001232300   -0.0000583300    0.0002405100
  -0.0001383500    0.0002203300    0.0001976500
   0.0349105200   -0.0594149100    0.0789828900
  -0.0023023100    0.0057572200    0.0001293300
  -0.0037586900    0.0060282400    0.0009368500
   0.0021970100    0.0036119300    0.0005004400
  -0.0033441100   -0.0007033500    0.0005979000
  -0.0001227600    0.0002214500    0.0001441700
   0.0007821800    0.0023051600    0.0000789100
  -0.0001156500    0.0002126600    0.0001416400
  -0.0032802200   -0.0001502600    0.0009804700
   0.0001062100   -0.0001612100   -0.0007372800
  -0.0002355500    0.0001465600   -0.0007988100
  -0.0000106000    0.0001840700   -0.0008850200
   0.0000847300   -0.0000772600   -0.0008155000
  -0.0000471900   -0.0000351500   -0.0008453300
  -0.0000351700    0.0000739000   -0.0001915900
   0.0003013400    0.0000949900   -0.0007984600
  -0.0000423100    0.0000736900   -0.0001853500
  -0.0001519800   -0.0001456500   -0.0008708300
   0.0003377300    0.0047498000   -0.0061120000
  -0.0002668200    0.0002067800    0.0000006600
   0.0014313400   -0.0012167400   -0.0028560500
  -0.0025129900   -0.0022746800   -0.0045036800
  -0.0003458300    0.0001096400   -0.0002063800
   0.0000575800   -0.0000647400    0.0000758700
   0.0002196500    0.0000697300    0.0000603100
  -0.0001776400    0.0000972200   -0.0000678400
   0.0002573900   -0.0000476700   -0.0000647500
   0.0003422200   -0.0006157100   -0.0018827000
  -0.0000975200    0.0003029600    0.0000044600
  -0.0032959900    0.0014899600   -0.0071885800
   0.0021546900    0.0004319400   -0.0045356800
  -0.0000094000   -0.0001026500    0.0001005200
   0.0000666600    0.0003180400   -0.0002267700
   0.0000425700    0.0001673200   -0.0000983200
  -0.0001505400   -0.0000925600    0.0000926600
  -0.0000745300   -0.0002322400   -0.0000574000
