   9   9   0   0
  0.1263398E+02  0.4916558E-09  0.4916558E-09  0.5431625E-09  0.5000000E-15
   1.0000000000000000E-004
  CAR 
 unknown system                          
     19.92547357    -20.17361034  301      1.24598365      1.00000000
    -20.174  0.0000E+00  0.0000E+00
    -20.040  0.0000E+00  0.0000E+00
    -19.906  0.0000E+00  0.0000E+00
    -19.773  0.0000E+00  0.0000E+00
    -19.639  0.0000E+00  0.0000E+00
    -19.505  0.0000E+00  0.0000E+00
    -19.372  0.0000E+00  0.0000E+00
    -19.238  0.0000E+00  0.0000E+00
    -19.104  0.0000E+00  0.0000E+00
    -18.971  0.0000E+00  0.0000E+00
    -18.837  0.0000E+00  0.0000E+00
    -18.703  0.0000E+00  0.0000E+00
    -18.570  0.0000E+00  0.0000E+00
    -18.436  0.9927E-05  0.1327E-05
    -18.302  0.9467E+00  0.1265E+00
    -18.169  0.8811E+00  0.2443E+00
    -18.035  0.5768E+00  0.3214E+00
    -17.901  0.8432E+00  0.4341E+00
    -17.768  0.9157E+01  0.1658E+01
    -17.634  0.4662E+01  0.2281E+01
    -17.500  0.2680E+01  0.2639E+01
    -17.367  0.4682E+01  0.3265E+01
    -17.233  0.3505E+01  0.3734E+01
    -17.099  0.1715E+01  0.3963E+01
    -16.966  0.1495E+01  0.4163E+01
    -16.832  0.6225E+01  0.4995E+01
    -16.698  0.3167E+01  0.5418E+01
    -16.565  0.7033E+00  0.5512E+01
    -16.431  0.7820E+00  0.5617E+01
    -16.297  0.1907E+01  0.5871E+01
    -16.164  0.3981E+02  0.1119E+02
    -16.030  0.6036E+01  0.1200E+02
    -15.896  0.0000E+00  0.1200E+02
    -15.763  0.0000E+00  0.1200E+02
    -15.629  0.0000E+00  0.1200E+02
    -15.495  0.0000E+00  0.1200E+02
    -15.362  0.0000E+00  0.1200E+02
    -15.228  0.0000E+00  0.1200E+02
    -15.094  0.0000E+00  0.1200E+02
    -14.961  0.0000E+00  0.1200E+02
    -14.827  0.0000E+00  0.1200E+02
    -14.693  0.0000E+00  0.1200E+02
    -14.560  0.0000E+00  0.1200E+02
    -14.426  0.0000E+00  0.1200E+02
    -14.292  0.0000E+00  0.1200E+02
    -14.159  0.0000E+00  0.1200E+02
    -14.025  0.0000E+00  0.1200E+02
    -13.891  0.0000E+00  0.1200E+02
    -13.758  0.0000E+00  0.1200E+02
    -13.624  0.0000E+00  0.1200E+02
    -13.490  0.0000E+00  0.1200E+02
    -13.357  0.0000E+00  0.1200E+02
    -13.223  0.0000E+00  0.1200E+02
    -13.089  0.0000E+00  0.1200E+02
    -12.956  0.0000E+00  0.1200E+02
    -12.822  0.0000E+00  0.1200E+02
    -12.688  0.0000E+00  0.1200E+02
    -12.555  0.0000E+00  0.1200E+02
    -12.421  0.0000E+00  0.1200E+02
    -12.287  0.0000E+00  0.1200E+02
    -12.154  0.0000E+00  0.1200E+02
    -12.020  0.0000E+00  0.1200E+02
    -11.886  0.0000E+00  0.1200E+02
    -11.753  0.0000E+00  0.1200E+02
    -11.619  0.0000E+00  0.1200E+02
    -11.485  0.0000E+00  0.1200E+02
    -11.352  0.0000E+00  0.1200E+02
    -11.218  0.0000E+00  0.1200E+02
    -11.084  0.0000E+00  0.1200E+02
    -10.951  0.0000E+00  0.1200E+02
    -10.817  0.0000E+00  0.1200E+02
    -10.683  0.0000E+00  0.1200E+02
    -10.550  0.0000E+00  0.1200E+02
    -10.416  0.0000E+00  0.1200E+02
    -10.283  0.0000E+00  0.1200E+02
    -10.149  0.0000E+00  0.1200E+02
    -10.015  0.0000E+00  0.1200E+02
     -9.882  0.0000E+00  0.1200E+02
     -9.748  0.0000E+00  0.1200E+02
     -9.614  0.0000E+00  0.1200E+02
     -9.481  0.0000E+00  0.1200E+02
     -9.347  0.0000E+00  0.1200E+02
     -9.213  0.0000E+00  0.1200E+02
     -9.080  0.0000E+00  0.1200E+02
     -8.946  0.0000E+00  0.1200E+02
     -8.812  0.0000E+00  0.1200E+02
     -8.679  0.0000E+00  0.1200E+02
     -8.545  0.0000E+00  0.1200E+02
     -8.411  0.2289E-12  0.1200E+02
     -8.278  0.1240E+00  0.1202E+02
     -8.144  0.1517E+01  0.1222E+02
     -8.010  0.7225E+00  0.1232E+02
     -7.877  0.5349E+00  0.1239E+02
     -7.743  0.4944E+00  0.1245E+02
     -7.609  0.4748E+00  0.1252E+02
     -7.476  0.3658E+00  0.1257E+02
     -7.342  0.1685E+01  0.1279E+02
     -7.208  0.3895E+01  0.1331E+02
     -7.075  0.3459E+01  0.1377E+02
     -6.941  0.7842E+00  0.1388E+02
     -6.807  0.6968E+00  0.1397E+02
     -6.674  0.6516E+00  0.1406E+02
     -6.540  0.9946E+00  0.1419E+02
     -6.406  0.7433E+00  0.1429E+02
     -6.273  0.1790E+01  0.1453E+02
     -6.139  0.4121E+01  0.1508E+02
     -6.005  0.1192E+01  0.1524E+02
     -5.872  0.1127E+01  0.1539E+02
     -5.738  0.1235E+01  0.1556E+02
     -5.604  0.1689E+01  0.1578E+02
     -5.471  0.3601E+01  0.1626E+02
     -5.337  0.2920E+01  0.1665E+02
     -5.203  0.4668E+01  0.1728E+02
     -5.070  0.1415E+01  0.1747E+02
     -4.936  0.7662E+00  0.1757E+02
     -4.802  0.1032E+01  0.1771E+02
     -4.669  0.4316E+00  0.1777E+02
     -4.535  0.9303E+00  0.1789E+02
     -4.401  0.5332E+01  0.1860E+02
     -4.268  0.1027E+02  0.1997E+02
     -4.134  0.6807E+01  0.2088E+02
     -4.000  0.5476E+01  0.2162E+02
     -3.867  0.6786E+01  0.2252E+02
     -3.733  0.3407E+01  0.2298E+02
     -3.599  0.3510E+01  0.2345E+02
     -3.466  0.3342E+01  0.2389E+02
     -3.332  0.7885E+00  0.2400E+02
     -3.198  0.0000E+00  0.2400E+02
     -3.065  0.0000E+00  0.2400E+02
     -2.931  0.0000E+00  0.2400E+02
     -2.797  0.0000E+00  0.2400E+02
     -2.664  0.0000E+00  0.2400E+02
     -2.530  0.0000E+00  0.2400E+02
     -2.396  0.0000E+00  0.2400E+02
     -2.263  0.1932E-02  0.2400E+02
     -2.129  0.3528E+01  0.2447E+02
     -1.995  0.7861E+01  0.2552E+02
     -1.862  0.7439E+01  0.2652E+02
     -1.728  0.1015E+02  0.2787E+02
     -1.594  0.6248E+01  0.2871E+02
     -1.461  0.5981E+01  0.2951E+02
     -1.327  0.4290E+01  0.3008E+02
     -1.193  0.3437E+01  0.3054E+02
     -1.060  0.4338E+01  0.3112E+02
     -0.926  0.1127E+02  0.3263E+02
     -0.792  0.1286E+02  0.3435E+02
     -0.659  0.6062E+01  0.3516E+02
     -0.525  0.6665E+01  0.3605E+02
     -0.391  0.9766E+01  0.3735E+02
     -0.258  0.3514E+01  0.3782E+02
     -0.124  0.8363E+01  0.3894E+02
      0.010  0.1033E+02  0.4032E+02
      0.143  0.1066E+02  0.4174E+02
      0.277  0.2978E+01  0.4214E+02
      0.411  0.5743E+01  0.4291E+02
      0.544  0.8911E+01  0.4410E+02
      0.678  0.8051E+01  0.4518E+02
      0.812  0.6166E+01  0.4600E+02
      0.945  0.8972E+01  0.4720E+02
      1.079  0.5859E+01  0.4798E+02
      1.213  0.1210E+00  0.4800E+02
      1.346  0.0000E+00  0.4800E+02
      1.480  0.0000E+00  0.4800E+02
      1.614  0.0000E+00  0.4800E+02
      1.747  0.0000E+00  0.4800E+02
      1.881  0.0000E+00  0.4800E+02
      2.015  0.0000E+00  0.4800E+02
      2.148  0.0000E+00  0.4800E+02
      2.282  0.0000E+00  0.4800E+02
      2.416  0.0000E+00  0.4800E+02
      2.549  0.0000E+00  0.4800E+02
      2.683  0.0000E+00  0.4800E+02
      2.817  0.0000E+00  0.4800E+02
      2.950  0.0000E+00  0.4800E+02
      3.084  0.0000E+00  0.4800E+02
      3.218  0.0000E+00  0.4800E+02
      3.351  0.0000E+00  0.4800E+02
      3.485  0.0000E+00  0.4800E+02
      3.619  0.0000E+00  0.4800E+02
      3.752  0.0000E+00  0.4800E+02
      3.886  0.0000E+00  0.4800E+02
      4.020  0.0000E+00  0.4800E+02
      4.153  0.0000E+00  0.4800E+02
      4.287  0.0000E+00  0.4800E+02
      4.420  0.0000E+00  0.4800E+02
      4.554  0.0000E+00  0.4800E+02
      4.688  0.0000E+00  0.4800E+02
      4.821  0.0000E+00  0.4800E+02
      4.955  0.0000E+00  0.4800E+02
      5.089  0.0000E+00  0.4800E+02
      5.222  0.0000E+00  0.4800E+02
      5.356  0.0000E+00  0.4800E+02
      5.490  0.0000E+00  0.4800E+02
      5.623  0.0000E+00  0.4800E+02
      5.757  0.0000E+00  0.4800E+02
      5.891  0.0000E+00  0.4800E+02
      6.024  0.0000E+00  0.4800E+02
      6.158  0.0000E+00  0.4800E+02
      6.292  0.0000E+00  0.4800E+02
      6.425  0.0000E+00  0.4800E+02
      6.559  0.0000E+00  0.4800E+02
      6.693  0.0000E+00  0.4800E+02
      6.826  0.8306E-17  0.4800E+02
      6.960  0.5121E-02  0.4800E+02
      7.094  0.6019E+00  0.4808E+02
      7.227  0.3079E+00  0.4812E+02
      7.361  0.2611E+00  0.4816E+02
      7.495  0.1722E+00  0.4818E+02
      7.628  0.1597E+00  0.4820E+02
      7.762  0.1625E+00  0.4822E+02
      7.896  0.1538E+00  0.4824E+02
      8.029  0.1428E+00  0.4826E+02
      8.163  0.1383E+00  0.4828E+02
      8.297  0.1420E+00  0.4830E+02
      8.430  0.1473E+00  0.4832E+02
      8.564  0.1493E+00  0.4834E+02
      8.698  0.1488E+00  0.4836E+02
      8.831  0.1426E+00  0.4838E+02
      8.965  0.7314E+00  0.4848E+02
      9.099  0.1170E+01  0.4863E+02
      9.232  0.6769E+00  0.4872E+02
      9.366  0.1511E+01  0.4893E+02
      9.500  0.1024E+01  0.4906E+02
      9.633  0.9652E+00  0.4919E+02
      9.767  0.2472E+01  0.4952E+02
      9.901  0.3920E+01  0.5005E+02
     10.034  0.4687E+01  0.5067E+02
     10.168  0.4972E+01  0.5134E+02
     10.302  0.4712E+01  0.5197E+02
     10.435  0.4646E+01  0.5259E+02
     10.569  0.3573E+01  0.5307E+02
     10.703  0.6571E+01  0.5394E+02
     10.836  0.6413E+01  0.5480E+02
     10.970  0.4235E+01  0.5537E+02
     11.104  0.4740E+01  0.5600E+02
     11.237  0.3459E+01  0.5646E+02
     11.371  0.6194E+01  0.5729E+02
     11.505  0.7868E+01  0.5834E+02
     11.638  0.8890E+01  0.5953E+02
     11.772  0.5393E+01  0.6025E+02
     11.906  0.3819E+01  0.6076E+02
     12.039  0.4452E+01  0.6136E+02
     12.173  0.5069E+01  0.6203E+02
     12.307  0.5361E+01  0.6275E+02
     12.440  0.3727E+01  0.6325E+02
     12.574  0.3847E+01  0.6376E+02
     12.708  0.5433E+01  0.6449E+02
     12.841  0.4770E+01  0.6513E+02
     12.975  0.5764E+01  0.6590E+02
     13.109  0.7151E+01  0.6685E+02
     13.242  0.3772E+01  0.6736E+02
     13.376  0.4953E+01  0.6802E+02
     13.510  0.4320E+01  0.6860E+02
     13.643  0.3477E+01  0.6906E+02
     13.777  0.3467E+01  0.6953E+02
     13.911  0.4572E+01  0.7014E+02
     14.044  0.6888E+01  0.7106E+02
     14.178  0.3983E+01  0.7159E+02
     14.312  0.2365E+01  0.7191E+02
     14.445  0.2912E+01  0.7229E+02
     14.579  0.2706E+01  0.7266E+02
     14.713  0.3349E+01  0.7310E+02
     14.846  0.4425E+01  0.7370E+02
     14.980  0.2076E+01  0.7397E+02
     15.114  0.2694E+01  0.7433E+02
     15.247  0.5520E+01  0.7507E+02
     15.381  0.3646E+01  0.7556E+02
     15.515  0.4346E+01  0.7614E+02
     15.648  0.2161E+01  0.7643E+02
     15.782  0.2857E+01  0.7681E+02
     15.916  0.2965E+01  0.7721E+02
     16.049  0.3431E+01  0.7766E+02
     16.183  0.3771E+01  0.7817E+02
     16.317  0.2959E+01  0.7856E+02
     16.450  0.6394E+01  0.7942E+02
     16.584  0.7131E+01  0.8037E+02
     16.718  0.5920E+01  0.8116E+02
     16.851  0.6197E+01  0.8199E+02
     16.985  0.4726E+01  0.8262E+02
     17.119  0.2020E+01  0.8289E+02
     17.252  0.2593E+01  0.8324E+02
     17.386  0.1986E+01  0.8351E+02
     17.520  0.8322E+00  0.8362E+02
     17.653  0.9562E+00  0.8374E+02
     17.787  0.3906E+00  0.8380E+02
     17.921  0.3478E+00  0.8384E+02
     18.054  0.6933E+00  0.8394E+02
     18.188  0.4810E+00  0.8400E+02
     18.322  0.7751E-05  0.8400E+02
     18.455  0.0000E+00  0.8400E+02
     18.589  0.0000E+00  0.8400E+02
     18.723  0.0000E+00  0.8400E+02
     18.856  0.0000E+00  0.8400E+02
     18.990  0.0000E+00  0.8400E+02
     19.123  0.0000E+00  0.8400E+02
     19.257  0.0000E+00  0.8400E+02
     19.391  0.0000E+00  0.8400E+02
     19.524  0.0000E+00  0.8400E+02
     19.658  0.0000E+00  0.8400E+02
     19.792  0.0000E+00  0.8400E+02
     19.925  0.0000E+00  0.8400E+02
