 vasp.6.4.3 19Mar24 (build Jul  1 2025 23:09:51) complex                         
 executed on             LinuxGNU date 2025.12.31  15:13:40
 running   14 mpi-ranks, with   14 threads/rank, on    1 nodes
 distrk:  each k-point on   14 cores,    1 groups
 distr:  one band on NCORE=   1 cores,   14 groups


--------------------------------------------------------------------------------------------------------


 INCAR:
   GGA = PE
   PREC = Accurate
   ENCUT = 520
   KSPACING = 0.3
   ISMEAR = 0
   SIGMA = 0.03
   EDIFF = 1e-6
   NELM = 120
   NELMIN = 8
   ISIF = 2
   IBRION = 1
   EDIFFG = -1e-3
   NSW = 200

 POTCAR:    PAW_PBE Zn 06Sep2000                  
 POTCAR:    PAW_PBE S 06Sep2000                   
 POTCAR:    PAW_PBE Zn 06Sep2000                  
   SHA256 =  501fddbd8274dd8e9725d4f3de27861d7f1e553a7e18441bc79fed8f346e7f23 Zn/POTCAR             
   COPYR  = (c) Copyright 06Sep2000 Georg Kresse                                                    
   COPYR  = This file is part of the software VASP. Any use, copying, and all other rights are regul
   COPYR  = If you do not have a valid VASP license, you may not use, copy or distribute this file. 
   VRHFIN =Zn: d10 p2                                                                               
   LEXCH  = PE                                                                                      
   EATOM  =  1748.8345 eV,  128.5357 Ry                                                             
                                                                                                    
   TITEL  = PAW_PBE Zn 06Sep2000                                                                    
   LULTRA =        F    use ultrasoft PP ?                                                          
   IUNSCR =        1    unscreen: 0-lin 1-nonlin 2-no                                               
   RPACOR =    2.000    partial core radius                                                         
   POMASS =   65.390; ZVAL   =   12.000    mass and valenz                                          
   RCORE  =    2.300    outmost cutoff radius                                                       
   RWIGS  =    2.400; RWIGS  =    1.270    wigner-seitz radius (au A)                               
   ENMAX  =  276.723; ENMIN  =  207.542 eV                                                          
   RCLOC  =    1.828    cutoff for local pot                                                        
   LCOR   =        T    correct aug charges                                                         
   LPAW   =        T    paw PP                                                                      
   EAUG   =  575.892                                                                                
   DEXC   =    0.000                                                                                
   RMAX   =    2.347    core radius for proj-oper                                                   
   RAUG   =    1.300    factor for augmentation sphere                                              
   RDEP   =    2.324    radius for radial grids                                                     
   RDEPT  =    1.788    core radius for aug-charge                                                  
                                                                                                    
   Atomic configuration                                                                             
    9 entries                                                                                       
     n  l   j            E        occ.                                                              
     1  0  0.50     -9524.6913   2.0000                                                             
     2  0  0.50     -1158.1882   2.0000                                                             
     2  1  1.50     -1003.8506   6.0000                                                             
     3  0  0.50      -129.2194   2.0000                                                             
     3  1  1.50       -83.3890   6.0000                                                             
     3  2  2.50       -10.1410  10.0000                                                             
     4  0  0.50        -5.9785   2.0000                                                             
     4  1  0.50        -4.0817   0.0000                                                             
     4  3  2.50        -1.3606   0.0000                                                             
   Description                                                                                      
     l       E           TYP  RCUT    TYP  RCUT                                                     
     2    -10.1410010     23  2.300                                                                 
     2    -11.5015836     23  2.300                                                                 
     0     -5.9785163     23  2.300                                                                 
     0      1.1858015     23  2.300                                                                 
     1     -2.7211652     23  2.300                                                                 
     1     13.2444212     23  2.300                                                                 
  local pseudopotential read in
  partial core-charges read in
  partial kinetic energy density read in
  atomic valenz-charges read in
  non local Contribution for L=           2  read in
    real space projection operators read in
  non local Contribution for L=           2  read in
    real space projection operators read in
  non local Contribution for L=           0  read in
    real space projection operators read in
  non local Contribution for L=           0  read in
    real space projection operators read in
  non local Contribution for L=           1  read in
    real space projection operators read in
  non local Contribution for L=           1  read in
    real space projection operators read in
    PAW grid and wavefunctions read in

   number of l-projection  operators is LMAX  =           6
   number of lm-projection operators is LMMAX =          18

 POTCAR:    PAW_PBE S 06Sep2000                   
   SHA256 =  0fc7481fb0695f01bdc6462160264c5c84044ae9ec85a907d398b887a2bc3132 S/POTCAR              
   COPYR  = (c) Copyright 06Sep2000 Georg Kresse                                                    
   COPYR  = This file is part of the software VASP. Any use, copying, and all other rights are regul
   COPYR  = If you do not have a valid VASP license, you may not use, copy or distribute this file. 
   VRHFIN =S : s2p4                                                                                 
   LEXCH  = PE                                                                                      
   EATOM  =   276.8230 eV,   20.3459 Ry                                                             
                                                                                                    
   TITEL  = PAW_PBE S 06Sep2000                                                                     
   LULTRA =        F    use ultrasoft PP ?                                                          
   IUNSCR =        1    unscreen: 0-lin 1-nonlin 2-no                                               
   RPACOR =    1.500    partial core radius                                                         
   POMASS =   32.066; ZVAL   =    6.000    mass and valenz                                          
   RCORE  =    1.900    outmost cutoff radius                                                       
   RWIGS  =    2.200; RWIGS  =    1.164    wigner-seitz radius (au A)                               
   ENMAX  =  258.689; ENMIN  =  194.016 eV                                                          
   ICORE  =        2    local potential                                                             
   LCOR   =        T    correct aug charges                                                         
   LPAW   =        T    paw PP                                                                      
   EAUG   =  335.092                                                                                
   DEXC   =    0.000                                                                                
   RMAX   =    1.942    core radius for proj-oper                                                   
   RAUG   =    1.300    factor for augmentation sphere                                              
   RDEP   =    1.954    radius for radial grids                                                     
   RDEPT  =    1.744    core radius for aug-charge                                                  
                                                                                                    
   Atomic configuration                                                                             
    6 entries                                                                                       
     n  l   j            E        occ.                                                              
     1  0  0.50     -2405.8406   2.0000                                                             
     2  0  0.50      -211.7007   2.0000                                                             
     2  1  1.50      -156.4958   6.0000                                                             
     3  0  0.50       -17.2562   2.0000                                                             
     3  1  0.50        -7.0085   4.0000                                                             
     3  2  1.50        -6.8029   0.0000                                                             
   Description                                                                                      
     l       E           TYP  RCUT    TYP  RCUT                                                     
     0    -17.2561641     23  1.900                                                                 
     0    -15.8743224     23  1.900                                                                 
     1     -7.0085400     23  1.900                                                                 
     1     -2.7779785     23  1.900                                                                 
     2     -6.8029130     23  1.900                                                                 
  local pseudopotential read in
  partial core-charges read in
  partial kinetic energy density read in
  atomic valenz-charges read in
  non local Contribution for L=           0  read in
    real space projection operators read in
  non local Contribution for L=           0  read in
    real space projection operators read in
  non local Contribution for L=           1  read in
    real space projection operators read in
  non local Contribution for L=           1  read in
    real space projection operators read in
    PAW grid and wavefunctions read in

   number of l-projection  operators is LMAX  =           4
   number of lm-projection operators is LMMAX =           8

  PAW_PBE Zn 06Sep2000                  :
 energy of atom  1       EATOM=-1748.8345
 kinetic energy error for atom=    0.0029 (will be added to EATOM!!)
  PAW_PBE S 06Sep2000                   :
 energy of atom  2       EATOM= -276.8230
 kinetic energy error for atom=    0.0016 (will be added to EATOM!!)


 POSCAR: Zn S
  positions in cartesian coordinates
  velocities in cartesian coordinates


 exchange-correlation table for PE
   RHO(1)=    0.500       N(1)  =     2000
   RHO(2)=  100.500       N(2)  =     4000



--------------------------------------------------------------------------------------------------------


 ion  position               nearest neighbor table
   1  0.333  0.667  0.000-   4 2.26   4 2.26   4 2.26   3 2.27
   2  0.667  0.333  0.500-   3 2.26   3 2.26   3 2.26   4 2.27
   3  0.333  0.667  0.375-   2 2.26   2 2.26   2 2.26   1 2.27
   4  0.667  0.333  0.875-   1 2.26   1 2.26   1 2.26   2 2.27

  LATTYP: Found a hexagonal cell.
 ALAT       =     3.6946988716
 C/A-ratio  =     1.6395977843
  
  Lattice vectors:
  
 A1 = (   1.8473494358,  -3.1997030822,  -0.0000000000)
 A2 = (   1.8473494358,   3.1997030822,   0.0000000000)
 A3 = (   0.0000000000,   0.0000000000,   6.0578200837)


Analysis of symmetry for initial positions (statically):
=====================================================================
 Subroutine PRICEL returns:
 Original cell was already a primitive cell.
 

 Routine SETGRP: Setting up the symmetry group for a 
 hexagonal supercell.


 Subroutine GETGRP returns: Found 12 space group operations
 (whereof  6 operations were pure point group operations)
 out of a pool of 24 trial point group operations.


The static configuration has the point symmetry C_3v.
 The point group associated with its full space group is C_6v.


Analysis of symmetry for dynamics (positions and initial velocities):
=====================================================================
 Subroutine PRICEL returns:
 Original cell was already a primitive cell.
 

 Routine SETGRP: Setting up the symmetry group for a 
 hexagonal supercell.


 Subroutine GETGRP returns: Found 12 space group operations
 (whereof  6 operations were pure point group operations)
 out of a pool of 24 trial point group operations.


The dynamic configuration has the point symmetry C_3v.
 The point group associated with its full space group is C_6v.


 Subroutine INISYM returns: Found 12 space group operations
 (whereof  6 operations are pure point group operations),
 and found     1 'primitive' translations


----------------------------------------------------------------------------------------

                                     Primitive cell                                     

  volume of cell :      71.6152

  direct lattice vectors                    reciprocal lattice vectors
     1.847349436 -3.199703082 -0.000000000     0.270658052 -0.156264499  0.000000000
     1.847349436  3.199703082  0.000000000     0.270658052  0.156264499 -0.000000000
     0.000000000  0.000000000  6.057820084     0.000000000 -0.000000000  0.165075883

  length of vectors
     3.694698872  3.694698872  6.057820084     0.312528999  0.312528999  0.165075883

  position of ions in fractional coordinates (direct lattice)
     0.333333333  0.666666667  0.000260133
     0.666666667  0.333333333  0.500260133
     0.333333333  0.666666667  0.374739867
     0.666666667  0.333333333  0.874739867

  ion indices of the primitive-cell ions
   primitive index   ion index
                 1           1
                 2           2
                 3           3
                 4           4

----------------------------------------------------------------------------------------



 KPOINTS: Automatic kpoint scheme                 

Automatic generation of k-mesh.
 Grid dimensions read from file:
 generate k-points for:    6    6    4

 Generating k-lattice:

  Cartesian coordinates                     Fractional coordinates (reciprocal lattice)
     0.045109675 -0.026044083  0.000000000     0.166666667  0.000000000  0.000000000
     0.045109675  0.026044083 -0.000000000     0.000000000  0.166666667  0.000000000
     0.000000000 -0.000000000  0.041268971     0.000000000  0.000000000  0.250000000

  Length of vectors
     0.052088166  0.052088166  0.041268971

  Shift w.r.t. Gamma in fractional coordinates (k-lattice)
     0.000000000  0.000000000  0.000000000

 
 Subroutine IBZKPT returns following result:
 ===========================================
 
 Found     21 irreducible k-points:
 
 Following reciprocal coordinates:
            Coordinates               Weight
  0.000000  0.000000  0.000000      1.000000
  0.166667  0.000000  0.000000      6.000000
  0.333333  0.000000  0.000000      6.000000
  0.500000  0.000000  0.000000      3.000000
  0.166667  0.166667  0.000000      6.000000
  0.333333  0.166667  0.000000     12.000000
  0.333333  0.333333  0.000000      2.000000
  0.000000  0.000000  0.250000      2.000000
  0.166667  0.000000  0.250000     12.000000
  0.333333  0.000000  0.250000     12.000000
  0.500000  0.000000  0.250000      6.000000
  0.166667  0.166667  0.250000     12.000000
  0.333333  0.166667  0.250000     24.000000
  0.333333  0.333333  0.250000      4.000000
  0.000000  0.000000  0.500000      1.000000
  0.166667  0.000000  0.500000      6.000000
  0.333333  0.000000  0.500000      6.000000
  0.500000  0.000000  0.500000      3.000000
  0.166667  0.166667  0.500000      6.000000
  0.333333  0.166667  0.500000     12.000000
  0.333333  0.333333  0.500000      2.000000
 
 Following cartesian coordinates:
            Coordinates               Weight
  0.000000 -0.000000  0.000000      1.000000
  0.045110 -0.026044  0.000000      6.000000
  0.090219 -0.052088  0.000000      6.000000
  0.135329 -0.078132  0.000000      3.000000
  0.090219 -0.000000  0.000000      6.000000
  0.135329 -0.026044  0.000000     12.000000
  0.180439  0.000000  0.000000      2.000000
  0.000000 -0.000000  0.041269      2.000000
  0.045110 -0.026044  0.041269     12.000000
  0.090219 -0.052088  0.041269     12.000000
  0.135329 -0.078132  0.041269      6.000000
  0.090219 -0.000000  0.041269     12.000000
  0.135329 -0.026044  0.041269     24.000000
  0.180439  0.000000  0.041269      4.000000
  0.000000 -0.000000  0.082538      1.000000
  0.045110 -0.026044  0.082538      6.000000
  0.090219 -0.052088  0.082538      6.000000
  0.135329 -0.078132  0.082538      3.000000
  0.090219 -0.000000  0.082538      6.000000
  0.135329 -0.026044  0.082538     12.000000
  0.180439  0.000000  0.082538      2.000000
 


--------------------------------------------------------------------------------------------------------




 Dimension of arrays:
   k-points           NKPTS =     21   k-points in BZ     NKDIM =     21   number of bands    NBANDS=     28
   number of dos      NEDOS =    301   number of ions     NIONS =      4
   non local maximal  LDIM  =      6   non local SUM 2l+1 LMDIM =     18
   total plane-waves  NPLWV =  37632
   max r-space proj   IRMAX =      1   max aug-charges    IRDMAX=  16753
   dimension x,y,z NGX =    28 NGY =   28 NGZ =   48
   dimension x,y,z NGXF=    56 NGYF=   56 NGZF=   96
   support grid    NGXF=    56 NGYF=   56 NGZF=   96
   ions per type =               2   2
   NGX,Y,Z   is equivalent  to a cutoff of  12.60, 12.60, 13.17 a.u.
   NGXF,Y,Z  is equivalent  to a cutoff of  25.20, 25.20, 26.35 a.u.

 SYSTEM =  unknown system                          
 POSCAR =  Zn S                                    

 Startparameter for this run:
   NWRITE =      2    write-flag & timer
   PREC   = accura    normal or accurate (medium, high low for compatibility)
   ISTART =      0    job   : 0-new  1-cont  2-samecut
   ICHARG =      2    charge: 1-file 2-atom 10-const
   ISPIN  =      1    spin polarized calculation?
   LNONCOLLINEAR =      F non collinear calculations
   LSORBIT =      F    spin-orbit coupling
   INIWAV =      1    electr: 0-lowe 1-rand  2-diag
   LASPH  =      F    aspherical Exc in radial PAW
 Electronic Relaxation 1
   ENCUT  =  520.0 eV  38.22 Ry    6.18 a.u.   6.87  6.87 11.26*2*pi/ulx,y,z
   ENINI  =  520.0     initial cutoff
   ENAUG  =  575.9 eV  augmentation charge cutoff
   NELM   =    120;   NELMIN=  8; NELMDL= -5     # of ELM steps 
   EDIFF  = 0.1E-05   stopping-criterion for ELM
   LREAL  =      F    real-space projection
   NLSPLINE    = F    spline interpolate recip. space projectors
   LCOMPAT=      F    compatible to vasp.4.4
   GGA_COMPAT  = T    GGA compatible to vasp.4.4-vasp.4.6
   LMAXPAW     = -100 max onsite density
   LMAXMIX     =    2 max onsite mixed and CHGCAR
   VOSKOWN=      0    Vosko Wilk Nusair interpolation
   ROPT   =    0.00000   0.00000
 Ionic relaxation
   EDIFFG = -.1E-02   stopping-criterion for IOM
   NSW    =    200    number of steps for IOM
   NBLOCK =      1;   KBLOCK =    200    inner block; outer block 
   IBRION =      1    ionic relax: 0-MD 1-quasi-New 2-CG
   NFREE  =      0    steps in history (QN), initial steepest desc. (CG)
   ISIF   =      2    stress and relaxation
   IWAVPR =     11    prediction:  0-non 1-charg 2-wave 3-comb
   ISYM   =      2    0-nonsym 1-usesym 2-fastsym
   LCORR  =      T    Harris-Foulkes like correction to forces

   POTIM  = 0.5000    time-step for ionic-motion
   TEIN   =    0.0    initial temperature
   TEBEG  =    0.0;   TEEND  =   0.0 temperature during run
   SMASS  =  -3.00    Nose mass-parameter (am)
   estimated Nose-frequenzy (Omega)   =  0.10E-29 period in steps = 0.13E+47 mass=  -0.312E-27a.u.
   SCALEE = 1.0000    scale energy and forces
   NPACO  =    256;   APACO  = 10.0  distance and # of slots for P.C.
   PSTRESS=    0.0 pullay stress

  Mass of Ions in am
   POMASS =  65.39 32.07
  Ionic Valenz
   ZVAL   =  12.00  6.00
  Atomic Wigner-Seitz radii
   RWIGS  =  -1.00 -1.00
  virtual crystal weights 
   VCA    =   1.00  1.00
   NELECT =      36.0000    total number of electrons
   NUPDOWN=      -1.0000    fix difference up-down

 DOS related values:
   EMIN   =  10.00;   EMAX   =-10.00  energy-range for DOS
   EFERMI =   0.00;   METHOD = LEGACY      
   ISMEAR =     0;   SIGMA  =   0.03  broadening in eV -4-tet -1-fermi 0-gaus

 Electronic relaxation 2 (details)
   IALGO  =     38    algorithm
   LDIAG  =      T    sub-space diagonalisation (order eigenvalues)
   LSUBROT=      F    optimize rotation matrix (better conditioning)
   TURBO    =      0    0=normal 1=particle mesh
   IRESTART =      0    0=no restart 2=restart with 2 vectors
   NREBOOT  =      0    no. of reboots
   NMIN     =      0    reboot dimension
   EREF     =   0.00    reference energy to select bands
   IMIX   =      4    mixing-type and parameters
     AMIX     =   0.40;   BMIX     =  1.00
     AMIX_MAG =   1.60;   BMIX_MAG =  1.00
     AMIN     =   0.10
     WC   =   100.;   INIMIX=   1;  MIXPRE=   1;  MAXMIX= -45

 Intra band minimization:
   WEIMIN = 0.0010     energy-eigenvalue tresh-hold
   EBREAK =  0.89E-08  absolut break condition
   DEPER  =   0.30     relativ break condition  

   TIME   =   0.40     timestep for ELM

  volume/ion in A,a.u.               =      17.90       120.82
  Fermi-wavevector in a.u.,A,eV,Ry     =   1.301689  2.459836 23.053640  1.694395
  Thomas-Fermi vector in A             =   2.432806

 Write flags
   LWAVE        =      T    write WAVECAR
   LDOWNSAMPLE  =      F    k-point downsampling of WAVECAR
   LCHARG       =      T    write CHGCAR
   LVTOT        =      F    write LOCPOT, total local potential
   LVHAR        =      F    write LOCPOT, Hartree potential only
   WRT_POTENTIAL= false  ! write potential to hdf5 file
   LELF         =      F    write electronic localiz. function (ELF)
   LORBIT       =      0    0 simple, 1 ext, 2 COOP (PROOUT), +10 PAW based schemes


 Dipole corrections
   LMONO      =      F    monopole corrections only (constant potential shift)
   LDIPOL     =      F    correct potential (dipole corrections)
   IDIPOL     =      0    1-x, 2-y, 3-z, 4-all directions 
   EPSILON    =  1.0000000 bulk dielectric constant
   LVACPOTAV  =      F  vacuum potentials using an averaging scheme for the charge density
   VACPOTFLAT =  0.1000000 required flatness to determine vacuum potential
 Exchange correlation treatment:
   GGA     = PE    functional components
   XC_C    = 1    coefficients multiplying the functional components
   LIBXC   =     F    Libxc                    
   VOSKOWN =     0    Vosko Wilk Nusair interpolation
   LHFCALC =     F    Hartree Fock is set to
   LHFONE  =     F    Hartree Fock one center treatment
   AEXX    =    0.0000 exact exchange contribution

 Parameters of functionals:
   PE:
     No parameter

 Van der Waals corrections
   IVDW    =     0    specifies the selected vdW correction

 Linear response parameters
   LEPSILON=     F    determine dielectric tensor
   LRPA    =     F    only Hartree local field effects (RPA)
   LNABLA  =     F    use nabla operator in PAW spheres
   LVEL    =     F    velocity operator in full k-point grid
   CSHIFT  =0.1000    complex shift for real part using Kramers Kronig
   OMEGAMAX=  -1.0    maximum frequency
   DEG_THRESHOLD= 0.2000000E-02 threshold for treating states as degnerate
   RTIME   =   -0.100 relaxation time in fs
  (WPLASMAI=    0.000 imaginary part of plasma frequency in eV, 0.658/RTIME)
   DFIELD  = 0.0000000 0.0000000 0.0000000 field for delta impulse in time

  Optional k-point grid parameters
   LKPOINTS_OPT  =     F    use optional k-point grid
   KPOINTS_OPT_MODE=     1    mode for optional k-point grid

 Orbital magnetization related:
   ORBITALMAG=     F  switch on orbital magnetization
   LCHIMAG   =     F  perturbation theory with respect to B field
   DQ        =  0.001000  dq finite difference perturbation B field
   LLRAUG    =     F  two centre corrections for induced B field
   LBONE     =     F  B-component reconstruction in AE one-centre
   LVGVCALC  =     T  calculate vGv susceptibility
   LVGVAPPL  =     F  apply vGv susceptibility instead of pGv for G=0

 Random number generation:
   RANDOM_GENERATOR = DEFAULT
   PCG_SEED         = not used


--------------------------------------------------------------------------------------------------------


 quasi-Newton-method for relaxation of ions
 charge density and potential will be updated during run
 non-spin polarized calculation
 Variant of blocked Davidson
 Davidson routine will perform the subspace rotation
 perform sub-space diagonalisation
    after iterative eigenvector-optimisation
 modified Broyden-mixing scheme, WC =      100.0
 initial mixing is a Kerker type mixing with AMIX =  0.4000 and BMIX =      1.0000
 Hartree-type preconditioning will be used
 using additional bands           10
 reciprocal scheme for non local part
 use partial core corrections
 calculate Harris-corrections to forces   (improved forces if not selfconsistent)
 use gradient corrections 
 use of overlap-Matrix (Vanderbilt PP)
 Gauss-broadening in eV      SIGMA  =   0.03


--------------------------------------------------------------------------------------------------------


  energy-cutoff  :      520.00
  volume of cell :       71.62
      direct lattice vectors                 reciprocal lattice vectors
     1.847349436 -3.199703082 -0.000000000     0.270658052 -0.156264499  0.000000000
     1.847349436  3.199703082  0.000000000     0.270658052  0.156264499 -0.000000000
     0.000000000  0.000000000  6.057820084     0.000000000 -0.000000000  0.165075883

  length of vectors
     3.694698872  3.694698872  6.057820084     0.312528999  0.312528999  0.165075883



 k-points in units of 2pi/SCALE and weight: Automatic kpoint scheme                 
   0.00000000  0.00000000  0.00000000       0.007
   0.04510968 -0.02604408  0.00000000       0.042
   0.09021935 -0.05208817  0.00000000       0.042
   0.13532903 -0.07813225  0.00000000       0.021
   0.09021935  0.00000000  0.00000000       0.042
   0.13532903 -0.02604408  0.00000000       0.083
   0.18043870 -0.00000000  0.00000000       0.014
   0.00000000  0.00000000  0.04126897       0.014
   0.04510968 -0.02604408  0.04126897       0.083
   0.09021935 -0.05208817  0.04126897       0.083
   0.13532903 -0.07813225  0.04126897       0.042
   0.09021935  0.00000000  0.04126897       0.083
   0.13532903 -0.02604408  0.04126897       0.167
   0.18043870 -0.00000000  0.04126897       0.028
   0.00000000  0.00000000  0.08253794       0.007
   0.04510968 -0.02604408  0.08253794       0.042
   0.09021935 -0.05208817  0.08253794       0.042
   0.13532903 -0.07813225  0.08253794       0.021
   0.09021935  0.00000000  0.08253794       0.042
   0.13532903 -0.02604408  0.08253794       0.083
   0.18043870 -0.00000000  0.08253794       0.014

 k-points in reciprocal lattice and weights: Automatic kpoint scheme                 
   0.00000000  0.00000000  0.00000000       0.007
   0.16666667  0.00000000  0.00000000       0.042
   0.33333333  0.00000000  0.00000000       0.042
   0.50000000  0.00000000  0.00000000       0.021
   0.16666667  0.16666667  0.00000000       0.042
   0.33333333  0.16666667  0.00000000       0.083
   0.33333333  0.33333333  0.00000000       0.014
   0.00000000  0.00000000  0.25000000       0.014
   0.16666667  0.00000000  0.25000000       0.083
   0.33333333  0.00000000  0.25000000       0.083
   0.50000000  0.00000000  0.25000000       0.042
   0.16666667  0.16666667  0.25000000       0.083
   0.33333333  0.16666667  0.25000000       0.167
   0.33333333  0.33333333  0.25000000       0.028
   0.00000000  0.00000000  0.50000000       0.007
   0.16666667  0.00000000  0.50000000       0.042
   0.33333333  0.00000000  0.50000000       0.042
   0.50000000  0.00000000  0.50000000       0.021
   0.16666667  0.16666667  0.50000000       0.042
   0.33333333  0.16666667  0.50000000       0.083
   0.33333333  0.33333333  0.50000000       0.014

 position of ions in fractional coordinates (direct lattice) 
   0.33333333  0.66666667  0.00026013
   0.66666667  0.33333333  0.50026013
   0.33333333  0.66666667  0.37473987
   0.66666667  0.33333333  0.87473987

 position of ions in cartesian coordinates  (Angst):
   1.84734944  1.06656769  0.00157584
   1.84734944 -1.06656769  3.03048588
   1.84734944  1.06656769  2.27010669
   1.84734944 -1.06656769  5.29901673



--------------------------------------------------------------------------------------------------------


 k-point     1 :   0.0000 0.0000 0.0000  plane waves:    1919
 k-point     2 :   0.1667 0.0000 0.0000  plane waves:    1920
 k-point     3 :   0.3333 0.0000 0.0000  plane waves:    1936
 k-point     4 :   0.5000 0.0000 0.0000  plane waves:    1926
 k-point     5 :   0.1667 0.1667 0.0000  plane waves:    1919
 k-point     6 :   0.3333 0.1667 0.0000  plane waves:    1928
 k-point     7 :   0.3333 0.3333 0.0000  plane waves:    1953
 k-point     8 :   0.0000 0.0000 0.2500  plane waves:    1895
 k-point     9 :   0.1667 0.0000 0.2500  plane waves:    1917
 k-point    10 :   0.3333 0.0000 0.2500  plane waves:    1936
 k-point    11 :   0.5000 0.0000 0.2500  plane waves:    1930
 k-point    12 :   0.1667 0.1667 0.2500  plane waves:    1928
 k-point    13 :   0.3333 0.1667 0.2500  plane waves:    1929
 k-point    14 :   0.3333 0.3333 0.2500  plane waves:    1941
 k-point    15 :   0.0000 0.0000 0.5000  plane waves:    1906
 k-point    16 :   0.1667 0.0000 0.5000  plane waves:    1924
 k-point    17 :   0.3333 0.0000 0.5000  plane waves:    1930
 k-point    18 :   0.5000 0.0000 0.5000  plane waves:    1932
 k-point    19 :   0.1667 0.1667 0.5000  plane waves:    1928
 k-point    20 :   0.3333 0.1667 0.5000  plane waves:    1930
 k-point    21 :   0.3333 0.3333 0.5000  plane waves:    1920

 maximum and minimum number of plane-waves per node :      1953     1895

 maximum number of plane-waves:      1953
 maximum index in each direction: 
   IXMAX=    6   IYMAX=    6   IZMAX=   11
   IXMIN=   -7   IYMIN=   -7   IZMIN=  -11


 serial   3D FFT for wavefunctions
 parallel 3D FFT for charge:
    minimum data exchange during FFTs selected (reduces bandwidth)


 total amount of memory used by VASP MPI-rank0    47028. kBytes
=======================================================================

   base      :      30000. kBytes
   nonl-proj :      11979. kBytes
   fftplans  :        894. kBytes
   grid      :       2739. kBytes
   one-center:         62. kBytes
   wavefun   :       1354. kBytes

     INWAV:  cpu time      0.0000: real time      0.0000
 Broyden mixing: mesh for mixing (old mesh)
   NGX = 13   NGY = 13   NGZ = 23
  (NGX  = 56   NGY  = 56   NGZ  = 96)
  gives a total of   3887 points

 initial charge density was supplied:
 charge density of overlapping atoms calculated
 number of electron      36.0000000 magnetization 
 keeping initial charge density in first step


--------------------------------------------------------------------------------------------------------


 Maximum index for augmentation-charges         1148 (set IRDMAX)


--------------------------------------------------------------------------------------------------------


 First call to EWALD:  gamma=   0.427
 Maximum number of real-space cells 3x 3x 2
 Maximum number of reciprocal cells 2x 2x 4

    FEWALD:  cpu time      0.1310: real time      0.1936


--------------------------------------- Ionic step        1  -------------------------------------------




--------------------------------------- Iteration      1(   1)  ---------------------------------------


    POTLOK:  cpu time      0.1589: real time      0.1725
    SETDIJ:  cpu time      0.0101: real time      0.0096
     EDDAV:  cpu time      7.4161: real time      7.9454
       DOS:  cpu time      0.0002: real time      0.0003
    --------------------------------------------
      LOOP:  cpu time      7.5853: real time      8.1278

 eigenvalue-minimisations  :  1176
 total energy-change (2. order) : 0.1811415E+03  (-0.1789106E+04)
 number of electron      36.0000000 magnetization 
 augmentation part       36.0000000 magnetization 

 Free energy of the ion-electron system (eV)
  ---------------------------------------------------
  alpha Z        PSCENC =       157.89935440
  Ewald energy   TEWEN  =     -2586.08667594
  -Hartree energ DENC   =     -1338.09612567
  -exchange      EXHF   =         0.00000000
  -V(xc)+E(xc)   XCENC  =       139.60478692
  PAW double counting   =      3345.42656771    -3694.17617221
  entropy T*S    EENTRO =        -0.00087220
  eigenvalues    EBANDS =       105.26463821
  atomic energy  EATOM  =      4051.30602026
  Solvation  Ediel_sol  =         0.00000000
  ---------------------------------------------------
  free energy    TOTEN  =       181.14152149 eV

  energy without entropy =      181.14239369  energy(sigma->0) =      181.14195759


--------------------------------------------------------------------------------------------------------




--------------------------------------- Iteration      1(   2)  ---------------------------------------


     EDDAV:  cpu time     10.1172: real time     10.7990
       DOS:  cpu time      0.0002: real time      0.0002
    --------------------------------------------
      LOOP:  cpu time     10.1174: real time     10.7993

 eigenvalue-minimisations  :  1400
 total energy-change (2. order) :-0.1844956E+03  (-0.1790202E+03)
 number of electron      36.0000000 magnetization 
 augmentation part       36.0000000 magnetization 

 Free energy of the ion-electron system (eV)
  ---------------------------------------------------
  alpha Z        PSCENC =       157.89935440
  Ewald energy   TEWEN  =     -2586.08667594
  -Hartree energ DENC   =     -1338.09612567
  -exchange      EXHF   =         0.00000000
  -V(xc)+E(xc)   XCENC  =       139.60478692
  PAW double counting   =      3345.42656771    -3694.17617221
  entropy T*S    EENTRO =        -0.00000000
  eigenvalues    EBANDS =       -79.23180473
  atomic energy  EATOM  =      4051.30602026
  Solvation  Ediel_sol  =         0.00000000
  ---------------------------------------------------
  free energy    TOTEN  =        -3.35404925 eV

  energy without entropy =       -3.35404925  energy(sigma->0) =       -3.35404925


--------------------------------------------------------------------------------------------------------




--------------------------------------- Iteration      1(   3)  ---------------------------------------


     EDDAV:  cpu time     11.0221: real time     11.6808
       DOS:  cpu time      0.0001: real time      0.0001
    --------------------------------------------
      LOOP:  cpu time     11.0223: real time     11.6809

 eigenvalue-minimisations  :  1484
 total energy-change (2. order) :-0.1080949E+02  (-0.1077978E+02)
 number of electron      36.0000000 magnetization 
 augmentation part       36.0000000 magnetization 

 Free energy of the ion-electron system (eV)
  ---------------------------------------------------
  alpha Z        PSCENC =       157.89935440
  Ewald energy   TEWEN  =     -2586.08667594
  -Hartree energ DENC   =     -1338.09612567
  -exchange      EXHF   =         0.00000000
  -V(xc)+E(xc)   XCENC  =       139.60478692
  PAW double counting   =      3345.42656771    -3694.17617221
  entropy T*S    EENTRO =        -0.00000000
  eigenvalues    EBANDS =       -90.04129386
  atomic energy  EATOM  =      4051.30602026
  Solvation  Ediel_sol  =         0.00000000
  ---------------------------------------------------
  free energy    TOTEN  =       -14.16353838 eV

  energy without entropy =      -14.16353838  energy(sigma->0) =      -14.16353838


--------------------------------------------------------------------------------------------------------




--------------------------------------- Iteration      1(   4)  ---------------------------------------


     EDDAV:  cpu time     12.1837: real time     12.2945
       DOS:  cpu time      0.0001: real time      0.0001
    --------------------------------------------
      LOOP:  cpu time     12.1838: real time     12.2946

 eigenvalue-minimisations  :  1526
 total energy-change (2. order) :-0.1187521E+00  (-0.1187308E+00)
 number of electron      36.0000000 magnetization 
 augmentation part       36.0000000 magnetization 

 Free energy of the ion-electron system (eV)
  ---------------------------------------------------
  alpha Z        PSCENC =       157.89935440
  Ewald energy   TEWEN  =     -2586.08667594
  -Hartree energ DENC   =     -1338.09612567
  -exchange      EXHF   =         0.00000000
  -V(xc)+E(xc)   XCENC  =       139.60478692
  PAW double counting   =      3345.42656771    -3694.17617221
  entropy T*S    EENTRO =        -0.00000000
  eigenvalues    EBANDS =       -90.16004599
  atomic energy  EATOM  =      4051.30602026
  Solvation  Ediel_sol  =         0.00000000
  ---------------------------------------------------
  free energy    TOTEN  =       -14.28229051 eV

  energy without entropy =      -14.28229051  energy(sigma->0) =      -14.28229051


--------------------------------------------------------------------------------------------------------




--------------------------------------- Iteration      1(   5)  ---------------------------------------


     EDDAV:  cpu time     13.9407: real time     14.0572
       DOS:  cpu time      0.0001: real time      0.0001
    CHARGE:  cpu time      0.2416: real time      0.2025
    MIXING:  cpu time      0.0091: real time      0.0078
    --------------------------------------------
      LOOP:  cpu time     14.1915: real time     14.2676

 eigenvalue-minimisations  :  1540
 total energy-change (2. order) :-0.1766355E-02  (-0.1766333E-02)
 number of electron      36.0000016 magnetization 
 augmentation part       14.1671012 magnetization 

 Broyden mixing:
  rms(total) = 0.11711E+01    rms(broyden)= 0.11711E+01
  rms(prec ) = 0.14010E+01
  weight for this iteration     100.00

 Free energy of the ion-electron system (eV)
  ---------------------------------------------------
  alpha Z        PSCENC =       157.89935440
  Ewald energy   TEWEN  =     -2586.08667594
  -Hartree energ DENC   =     -1338.09612567
  -exchange      EXHF   =         0.00000000
  -V(xc)+E(xc)   XCENC  =       139.60478692
  PAW double counting   =      3345.42656771    -3694.17617221
  entropy T*S    EENTRO =        -0.00000000
  eigenvalues    EBANDS =       -90.16181235
  atomic energy  EATOM  =      4051.30602026
  Solvation  Ediel_sol  =         0.00000000
  ---------------------------------------------------
  free energy    TOTEN  =       -14.28405687 eV

  energy without entropy =      -14.28405687  energy(sigma->0) =      -14.28405687


--------------------------------------------------------------------------------------------------------




--------------------------------------- Iteration      1(   6)  ---------------------------------------


    POTLOK:  cpu time      0.0922: real time      0.1079
    SETDIJ:  cpu time      0.0038: real time      0.0040
     EDDAV:  cpu time     12.0347: real time     12.7827
       DOS:  cpu time      0.0002: real time      0.0001
    CHARGE:  cpu time      0.2345: real time      0.2014
    MIXING:  cpu time      0.0076: real time      0.0075
    --------------------------------------------
      LOOP:  cpu time     12.3729: real time     13.1037

 eigenvalue-minimisations  :  1596
 total energy-change (2. order) : 0.8467386E+00  (-0.1828829E+00)
 number of electron      36.0000017 magnetization 
 augmentation part       14.4216664 magnetization 

 Broyden mixing:
  rms(total) = 0.88890E+00    rms(broyden)= 0.88890E+00
  rms(prec ) = 0.92759E+00
  weight for this iteration     100.00

 eigenvalues of (default mixing * dielectric matrix)
  average eigenvalue GAMMA=   2.3227
  2.3227

 Free energy of the ion-electron system (eV)
  ---------------------------------------------------
  alpha Z        PSCENC =       157.89935440
  Ewald energy   TEWEN  =     -2586.08667594
  -Hartree energ DENC   =     -1323.29522290
  -exchange      EXHF   =         0.00000000
  -V(xc)+E(xc)   XCENC  =       139.46792808
  PAW double counting   =      3688.33566917    -4032.46383163
  entropy T*S    EENTRO =        -0.00000000
  eigenvalues    EBANDS =      -108.60055975
  atomic energy  EATOM  =      4051.30602026
  Solvation  Ediel_sol  =         0.00000000
  ---------------------------------------------------
  free energy    TOTEN  =       -13.43731830 eV

  energy without entropy =      -13.43731830  energy(sigma->0) =      -13.43731830


--------------------------------------------------------------------------------------------------------




--------------------------------------- Iteration      1(   7)  ---------------------------------------


    POTLOK:  cpu time      0.0862: real time      0.0977
    SETDIJ:  cpu time      0.0135: real time      0.0150
     EDDAV:  cpu time      8.0141: real time      8.6340
       DOS:  cpu time      0.0001: real time      0.0001
    CHARGE:  cpu time      0.2660: real time      0.2458
    MIXING:  cpu time      0.0060: real time      0.0074
    --------------------------------------------
      LOOP:  cpu time      8.3859: real time      9.0002

 eigenvalue-minimisations  :  1288
 total energy-change (2. order) : 0.3636926E-01  (-0.9633124E-01)
 number of electron      36.0000017 magnetization 
 augmentation part       14.3846124 magnetization 

 Broyden mixing:
  rms(total) = 0.37643E+00    rms(broyden)= 0.37643E+00
  rms(prec ) = 0.38900E+00
  weight for this iteration     100.00

 eigenvalues of (default mixing * dielectric matrix)
  average eigenvalue GAMMA=   1.7538
  0.8794  2.6282

 Free energy of the ion-electron system (eV)
  ---------------------------------------------------
  alpha Z        PSCENC =       157.89935440
  Ewald energy   TEWEN  =     -2586.08667594
  -Hartree energ DENC   =     -1326.43825566
  -exchange      EXHF   =         0.00000000
  -V(xc)+E(xc)   XCENC  =       139.93660395
  PAW double counting   =      4200.83572546    -4551.39303287
  entropy T*S    EENTRO =        -0.00000000
  eigenvalues    EBANDS =       -99.46068863
  atomic energy  EATOM  =      4051.30602026
  Solvation  Ediel_sol  =         0.00000000
  ---------------------------------------------------
  free energy    TOTEN  =       -13.40094904 eV

  energy without entropy =      -13.40094904  energy(sigma->0) =      -13.40094904


--------------------------------------------------------------------------------------------------------




--------------------------------------- Iteration      1(   8)  ---------------------------------------


    POTLOK:  cpu time      0.1139: real time      0.1235
    SETDIJ:  cpu time      0.0057: real time      0.0057
     EDDAV:  cpu time     11.1418: real time     11.6351
       DOS:  cpu time      0.0002: real time      0.0002
    CHARGE:  cpu time      0.2095: real time      0.2044
    MIXING:  cpu time      0.0084: real time      0.0066
    --------------------------------------------
      LOOP:  cpu time     11.4794: real time     11.9753

 eigenvalue-minimisations  :  1512
 total energy-change (2. order) : 0.2529890E-02  (-0.1888217E-02)
 number of electron      36.0000017 magnetization 
 augmentation part       14.3921938 magnetization 

 Broyden mixing:
  rms(total) = 0.84641E-01    rms(broyden)= 0.84641E-01
  rms(prec ) = 0.93214E-01
  weight for this iteration     100.00

 eigenvalues of (default mixing * dielectric matrix)
  average eigenvalue GAMMA=   1.5911
  2.4816  0.9631  1.3284

 Free energy of the ion-electron system (eV)
  ---------------------------------------------------
  alpha Z        PSCENC =       157.89935440
  Ewald energy   TEWEN  =     -2586.08667594
  -Hartree energ DENC   =     -1324.00959156
  -exchange      EXHF   =         0.00000000
  -V(xc)+E(xc)   XCENC  =       139.89470040
  PAW double counting   =      4539.58740436    -4891.28854448
  entropy T*S    EENTRO =        -0.00000000
  eigenvalues    EBANDS =      -100.70108660
  atomic energy  EATOM  =      4051.30602026
  Solvation  Ediel_sol  =         0.00000000
  ---------------------------------------------------
  free energy    TOTEN  =       -13.39841915 eV

  energy without entropy =      -13.39841915  energy(sigma->0) =      -13.39841915


--------------------------------------------------------------------------------------------------------




--------------------------------------- Iteration      1(   9)  ---------------------------------------


    POTLOK:  cpu time      0.1166: real time      0.0994
    SETDIJ:  cpu time      0.0039: real time      0.0039
     EDDAV:  cpu time     10.0446: real time     10.6634
       DOS:  cpu time      0.0001: real time      0.0001
    CHARGE:  cpu time      0.2065: real time      0.2062
    MIXING:  cpu time      0.0067: real time      0.0066
    --------------------------------------------
      LOOP:  cpu time     10.3784: real time     10.9796

 eigenvalue-minimisations  :  1414
 total energy-change (2. order) : 0.1044922E-02  (-0.7462597E-03)
 number of electron      36.0000017 magnetization 
 augmentation part       14.3943286 magnetization 

 Broyden mixing:
  rms(total) = 0.13041E-01    rms(broyden)= 0.13041E-01
  rms(prec ) = 0.15127E-01
  weight for this iteration     100.00

 eigenvalues of (default mixing * dielectric matrix)
  average eigenvalue GAMMA=   1.3502
  2.4383  1.3482  0.9503  0.6641

 Free energy of the ion-electron system (eV)
  ---------------------------------------------------
  alpha Z        PSCENC =       157.89935440
  Ewald energy   TEWEN  =     -2586.08667594
  -Hartree energ DENC   =     -1323.20879094
  -exchange      EXHF   =         0.00000000
  -V(xc)+E(xc)   XCENC  =       139.85183476
  PAW double counting   =      4624.33424167    -4976.13645807
  entropy T*S    EENTRO =        -0.00000000
  eigenvalues    EBANDS =      -101.35690038
  atomic energy  EATOM  =      4051.30602026
  Solvation  Ediel_sol  =         0.00000000
  ---------------------------------------------------
  free energy    TOTEN  =       -13.39737423 eV

  energy without entropy =      -13.39737423  energy(sigma->0) =      -13.39737423


--------------------------------------------------------------------------------------------------------




--------------------------------------- Iteration      1(  10)  ---------------------------------------


    POTLOK:  cpu time      0.1188: real time      0.1112
    SETDIJ:  cpu time      0.0056: real time      0.0050
     EDDAV:  cpu time     13.3557: real time     13.7506
       DOS:  cpu time      0.0002: real time      0.0002
    CHARGE:  cpu time      0.1738: real time      0.2069
    MIXING:  cpu time      0.0026: real time      0.0056
    --------------------------------------------
      LOOP:  cpu time     13.6567: real time     14.0794

 eigenvalue-minimisations  :  1512
 total energy-change (2. order) :-0.1548491E-03  (-0.3965513E-04)
 number of electron      36.0000017 magnetization 
 augmentation part       14.3937396 magnetization 

 Broyden mixing:
  rms(total) = 0.10189E-01    rms(broyden)= 0.10189E-01
  rms(prec ) = 0.11493E-01
  weight for this iteration     100.00

 eigenvalues of (default mixing * dielectric matrix)
  average eigenvalue GAMMA=   1.6596
  2.3293  1.9509  1.9509  1.0002  1.0668

 Free energy of the ion-electron system (eV)
  ---------------------------------------------------
  alpha Z        PSCENC =       157.89935440
  Ewald energy   TEWEN  =     -2586.08667594
  -Hartree energ DENC   =     -1323.31701107
  -exchange      EXHF   =         0.00000000
  -V(xc)+E(xc)   XCENC  =       139.85413161
  PAW double counting   =      4614.55940384    -4966.33299600
  entropy T*S    EENTRO =        -0.00000000
  eigenvalues    EBANDS =      -101.27975618
  atomic energy  EATOM  =      4051.30602026
  Solvation  Ediel_sol  =         0.00000000
  ---------------------------------------------------
  free energy    TOTEN  =       -13.39752908 eV

  energy without entropy =      -13.39752908  energy(sigma->0) =      -13.39752908


--------------------------------------------------------------------------------------------------------




--------------------------------------- Iteration      1(  11)  ---------------------------------------


    POTLOK:  cpu time      0.0946: real time      0.1034
    SETDIJ:  cpu time      0.0079: real time      0.0056
     EDDAV:  cpu time      9.9617: real time     10.8860
       DOS:  cpu time      0.0002: real time      0.0002
    CHARGE:  cpu time      0.2772: real time      0.2307
    MIXING:  cpu time      0.0075: real time      0.0081
    --------------------------------------------
      LOOP:  cpu time     10.3491: real time     11.2340

 eigenvalue-minimisations  :  1344
 total energy-change (2. order) :-0.1519412E-03  (-0.1347242E-04)
 number of electron      36.0000017 magnetization 
 augmentation part       14.3940955 magnetization 

 Broyden mixing:
  rms(total) = 0.59333E-02    rms(broyden)= 0.59333E-02
  rms(prec ) = 0.66390E-02
  weight for this iteration     100.00

 eigenvalues of (default mixing * dielectric matrix)
  average eigenvalue GAMMA=   1.6295
  2.7790  2.4506  0.9906  0.9906  1.2831  1.2831

 Free energy of the ion-electron system (eV)
  ---------------------------------------------------
  alpha Z        PSCENC =       157.89935440
  Ewald energy   TEWEN  =     -2586.08667594
  -Hartree energ DENC   =     -1323.46300723
  -exchange      EXHF   =         0.00000000
  -V(xc)+E(xc)   XCENC  =       139.86302306
  PAW double counting   =      4601.08536173    -4952.84012947
  entropy T*S    EENTRO =        -0.00000000
  eigenvalues    EBANDS =      -101.16162784
  atomic energy  EATOM  =      4051.30602026
  Solvation  Ediel_sol  =         0.00000000
  ---------------------------------------------------
  free energy    TOTEN  =       -13.39768102 eV

  energy without entropy =      -13.39768102  energy(sigma->0) =      -13.39768102


--------------------------------------------------------------------------------------------------------




--------------------------------------- Iteration      1(  12)  ---------------------------------------


    POTLOK:  cpu time      0.0981: real time      0.1154
    SETDIJ:  cpu time      0.0048: real time      0.0046
     EDDAV:  cpu time     13.1093: real time     14.2335
       DOS:  cpu time      0.0001: real time      0.0001
    CHARGE:  cpu time      0.2658: real time      0.2051
    MIXING:  cpu time      0.0135: real time      0.0136
    --------------------------------------------
      LOOP:  cpu time     13.4917: real time     14.5722

 eigenvalue-minimisations  :  1624
 total energy-change (2. order) :-0.8850105E-05  (-0.5355058E-05)
 number of electron      36.0000017 magnetization 
 augmentation part       14.3936664 magnetization 

 Broyden mixing:
  rms(total) = 0.12756E-02    rms(broyden)= 0.12756E-02
  rms(prec ) = 0.13167E-02
  weight for this iteration     100.00

 eigenvalues of (default mixing * dielectric matrix)
  average eigenvalue GAMMA=   1.5963
  2.7121  2.3888  1.4905  0.9861  0.9861  1.3051  1.3051

 Free energy of the ion-electron system (eV)
  ---------------------------------------------------
  alpha Z        PSCENC =       157.89935440
  Ewald energy   TEWEN  =     -2586.08667594
  -Hartree energ DENC   =     -1323.48113883
  -exchange      EXHF   =         0.00000000
  -V(xc)+E(xc)   XCENC  =       139.86294881
  PAW double counting   =      4604.72365104    -4956.50133048
  entropy T*S    EENTRO =        -0.00000000
  eigenvalues    EBANDS =      -101.12051912
  atomic energy  EATOM  =      4051.30602026
  Solvation  Ediel_sol  =         0.00000000
  ---------------------------------------------------
  free energy    TOTEN  =       -13.39768987 eV

  energy without entropy =      -13.39768987  energy(sigma->0) =      -13.39768987


--------------------------------------------------------------------------------------------------------




--------------------------------------- Iteration      1(  13)  ---------------------------------------


    POTLOK:  cpu time      0.0995: real time      0.0993
    SETDIJ:  cpu time      0.0050: real time      0.0050
     EDDAV:  cpu time     10.2046: real time     11.7308
       DOS:  cpu time      0.0001: real time      0.0001
    CHARGE:  cpu time      0.2357: real time      0.2259
    MIXING:  cpu time      0.0064: real time      0.0061
    --------------------------------------------
      LOOP:  cpu time     10.5514: real time     12.0672

 eigenvalue-minimisations  :  1400
 total energy-change (2. order) :-0.1178843E-05  (-0.5073317E-06)
 number of electron      36.0000017 magnetization 
 augmentation part       14.3937546 magnetization 

 Broyden mixing:
  rms(total) = 0.41763E-03    rms(broyden)= 0.41763E-03
  rms(prec ) = 0.46954E-03
  weight for this iteration     100.00

 eigenvalues of (default mixing * dielectric matrix)
  average eigenvalue GAMMA=   1.6953
  3.2865  2.4186  2.4186  1.2733  1.2733  0.9974  0.9474  0.9474

 Free energy of the ion-electron system (eV)
  ---------------------------------------------------
  alpha Z        PSCENC =       157.89935440
  Ewald energy   TEWEN  =     -2586.08667594
  -Hartree energ DENC   =     -1323.48120389
  -exchange      EXHF   =         0.00000000
  -V(xc)+E(xc)   XCENC  =       139.86305155
  PAW double counting   =      4605.79177994    -4957.56548648
  entropy T*S    EENTRO =        -0.00000000
  eigenvalues    EBANDS =      -101.12453089
  atomic energy  EATOM  =      4051.30602026
  Solvation  Ediel_sol  =         0.00000000
  ---------------------------------------------------
  free energy    TOTEN  =       -13.39769105 eV

  energy without entropy =      -13.39769105  energy(sigma->0) =      -13.39769105


--------------------------------------------------------------------------------------------------------




--------------------------------------- Iteration      1(  14)  ---------------------------------------


    POTLOK:  cpu time      0.1273: real time      0.1357
    SETDIJ:  cpu time      0.0046: real time      0.0042
     EDDAV:  cpu time     10.8314: real time     11.7773
       DOS:  cpu time      0.0011: real time      0.0018
    --------------------------------------------
      LOOP:  cpu time     10.9643: real time     11.9191

 eigenvalue-minimisations  :  1176
 total energy-change (2. order) :-0.3673431E-06  (-0.8311130E-07)
 number of electron      36.0000017 magnetization 
 augmentation part       14.3937546 magnetization 

 Free energy of the ion-electron system (eV)
  ---------------------------------------------------
  alpha Z        PSCENC =       157.89935440
  Ewald energy   TEWEN  =     -2586.08667594
  -Hartree energ DENC   =     -1323.49257184
  -exchange      EXHF   =         0.00000000
  -V(xc)+E(xc)   XCENC  =       139.86345209
  PAW double counting   =      4605.87578602    -4957.65079291
  entropy T*S    EENTRO =        -0.00000000
  eigenvalues    EBANDS =      -101.11226349
  atomic energy  EATOM  =      4051.30602026
  Solvation  Ediel_sol  =         0.00000000
  ---------------------------------------------------
  free energy    TOTEN  =       -13.39769142 eV

  energy without entropy =      -13.39769142  energy(sigma->0) =      -13.39769142


--------------------------------------------------------------------------------------------------------




 average (electrostatic) potential at core
  the test charge radii are     0.9521  0.9698
  (the norm of the test charge is              1.0000)
       1 -35.5769       2 -35.5769       3 -87.8535       4 -87.8535



 E-fermi :   3.2212     XC(G=0): -10.0880     alpha+bet : -8.8774

 val. band max:        3.0868211964   @ k =   0.0000   0.0000   0.0000
 cond. band min:       5.7232353731   @ k =   0.0000   0.0000   0.0000
 fundamental gap:      2.6364141768
 Fermi energy:         3.2211641596

 k-point     1 :       0.0000    0.0000    0.0000
  band No.  band energies     occupation 
      1     -10.8090      2.00000
      2      -9.6871      2.00000
      3      -3.6985      2.00000
      4      -3.6816      2.00000
      5      -3.6816      2.00000
      6      -3.5843      2.00000
      7      -3.5843      2.00000
      8      -3.1370      2.00000
      9      -3.1370      2.00000
     10      -3.0369      2.00000
     11      -3.0369      2.00000
     12      -2.9992      2.00000
     13      -2.7702      2.00000
     14       2.0476      2.00000
     15       2.0476      2.00000
     16       2.9950      2.00000
     17       3.0868      2.00000
     18       3.0868      2.00000
     19       5.7232      0.00000
     20       6.3368      0.00000
     21       9.3071      0.00000
     22       9.3071      0.00000
     23       9.5836      0.00000
     24      10.8021      0.00000
     25      10.8021      0.00000
     26      12.8163      0.00000
     27      13.1259      0.00000
     28      13.1259      0.00000

 k-point     2 :       0.1667    0.0000    0.0000
  band No.  band energies     occupation 
      1     -10.5948      2.00000
      2      -9.5687      2.00000
      3      -3.7120      2.00000
      4      -3.6544      2.00000
      5      -3.6402      2.00000
      6      -3.5632      2.00000
      7      -3.5211      2.00000
      8      -3.1796      2.00000
      9      -3.1655      2.00000
     10      -3.1361      2.00000
     11      -3.0265      2.00000
     12      -2.7871      2.00000
     13      -2.5632      2.00000
     14       0.6936      2.00000
     15       1.5866      2.00000
     16       1.7170      2.00000
     17       2.7045      2.00000
     18       2.8238      2.00000
     19       6.8413      0.00000
     20       7.2773      0.00000
     21       8.8667      0.00000
     22       9.8187      0.00000
     23       9.8705      0.00000
     24      10.7654      0.00000
     25      11.4137      0.00000
     26      11.7048      0.00000
     27      12.3984      0.00000
     28      12.8157      0.00000

 k-point     3 :       0.3333    0.0000    0.0000
  band No.  band energies     occupation 
      1     -10.0734      2.00000
      2      -9.3553      2.00000
      3      -3.7322      2.00000
      4      -3.6013      2.00000
      5      -3.5773      2.00000
      6      -3.4215      2.00000
      7      -3.3850      2.00000
      8      -3.2546      2.00000
      9      -3.1551      2.00000
     10      -3.0961      2.00000
     11      -3.0050      2.00000
     12      -2.6872      2.00000
     13      -2.0857      2.00000
     14      -0.9575      2.00000
     15      -0.1372      2.00000
     16       0.8296      2.00000
     17       1.8424      2.00000
     18       2.3044      2.00000
     19       6.8815      0.00000
     20       7.5874      0.00000
     21       8.6364      0.00000
     22      10.0001      0.00000
     23      10.0546      0.00000
     24      11.7241      0.00000
     25      11.9561      0.00000
     26      13.2092      0.00000
     27      13.7734      0.00000
     28      14.2837      0.00000

 k-point     4 :       0.5000    0.0000    0.0000
  band No.  band energies     occupation 
      1      -9.7050      2.00000
      2      -9.3128      2.00000
      3      -3.7100      2.00000
      4      -3.5584      2.00000
      5      -3.4802      2.00000
      6      -3.3981      2.00000
      7      -3.3148      2.00000
      8      -3.2450      2.00000
      9      -3.0513      2.00000
     10      -2.9906      2.00000
     11      -2.9898      2.00000
     12      -2.8853      2.00000
     13      -2.1151      2.00000
     14      -1.4178      2.00000
     15      -0.6446      2.00000
     16       0.4911      2.00000
     17       1.1148      2.00000
     18       2.0573      2.00000
     19       6.6385      0.00000
     20       7.5619      0.00000
     21       8.1168      0.00000
     22       9.9237      0.00000
     23      10.8749      0.00000
     24      11.5329      0.00000
     25      12.4059      0.00000
     26      14.9707      0.00000
     27      15.6968      0.00000
     28      16.2310      0.00000

 k-point     5 :       0.1667    0.1667    0.0000
  band No.  band energies     occupation 
      1     -10.2225      2.00000
      2      -9.4018      2.00000
      3      -3.6848      2.00000
      4      -3.6353      2.00000
      5      -3.5881      2.00000
      6      -3.5068      2.00000
      7      -3.4093      2.00000
      8      -3.1954      2.00000
      9      -3.1832      2.00000
     10      -3.1374      2.00000
     11      -3.0108      2.00000
     12      -2.7292      2.00000
     13      -2.1389      2.00000
     14      -0.3698      2.00000
     15       0.1568      2.00000
     16       0.8195      2.00000
     17       2.0947      2.00000
     18       2.1652      2.00000
     19       7.8952      0.00000
     20       8.2715      0.00000
     21       8.6986      0.00000
     22       8.8613      0.00000
     23      10.3242      0.00000
     24      10.7398      0.00000
     25      11.6743      0.00000
     26      12.3033      0.00000
     27      13.5050      0.00000
     28      13.8001      0.00000

 k-point     6 :       0.3333    0.1667    0.0000
  band No.  band energies     occupation 
      1      -9.7243      2.00000
      2      -9.3031      2.00000
      3      -3.6737      2.00000
      4      -3.5505      2.00000
      5      -3.4584      2.00000
      6      -3.3635      2.00000
      7      -3.2913      2.00000
      8      -3.2631      2.00000
      9      -3.1463      2.00000
     10      -3.1026      2.00000
     11      -2.9689      2.00000
     12      -2.6394      2.00000
     13      -2.1155      2.00000
     14      -1.1123      2.00000
     15      -0.5929      2.00000
     16      -0.1386      2.00000
     17       1.2268      2.00000
     18       1.4206      2.00000
     19       7.6563      0.00000
     20       8.0928      0.00000
     21       8.5377      0.00000
     22      10.1501      0.00000
     23      10.4959      0.00000
     24      11.7864      0.00000
     25      12.3339      0.00000
     26      13.0745      0.00000
     27      14.4239      0.00000
     28      15.3176      0.00000

 k-point     7 :       0.3333    0.3333    0.0000
  band No.  band energies     occupation 
      1      -9.4110      2.00000
      2      -9.4110      2.00000
      3      -3.6792      2.00000
      4      -3.4321      2.00000
      5      -3.4321      2.00000
      6      -3.2750      2.00000
      7      -3.1992      2.00000
      8      -3.1992      2.00000
      9      -3.1222      2.00000
     10      -3.1135      2.00000
     11      -2.8505      2.00000
     12      -2.8505      2.00000
     13      -1.5980      2.00000
     14      -1.5980      2.00000
     15      -1.3412      2.00000
     16       0.4114      2.00000
     17       0.4114      2.00000
     18       0.6756      2.00000
     19       7.0503      0.00000
     20       9.4054      0.00000
     21       9.4054      0.00000
     22      11.0824      0.00000
     23      11.2272      0.00000
     24      11.2272      0.00000
     25      13.0168      0.00000
     26      13.0168      0.00000
     27      13.4523      0.00000
     28      14.7875      0.00000

 k-point     8 :       0.0000    0.0000    0.2500
  band No.  band energies     occupation 
      1     -10.6700      2.00000
      2      -9.8831      2.00000
      3      -3.7157      2.00000
      4      -3.6723      2.00000
      5      -3.6723      2.00000
      6      -3.6037      2.00000
      7      -3.6037      2.00000
      8      -3.5154      2.00000
      9      -3.1184      2.00000
     10      -3.1184      2.00000
     11      -3.0474      2.00000
     12      -3.0474      2.00000
     13      -1.6783      2.00000
     14       1.8403      2.00000
     15       2.1872      2.00000
     16       2.1872      2.00000
     17       2.9201      2.00000
     18       2.9201      2.00000
     19       6.5027      0.00000
     20       6.6163      0.00000
     21       9.3200      0.00000
     22       9.4038      0.00000
     23       9.4039      0.00000
     24      10.4163      0.00000
     25      10.4163      0.00000
     26      11.8876      0.00000
     27      13.7550      0.00000
     28      13.7550      0.00000

 k-point     9 :       0.1667    0.0000    0.2500
  band No.  band energies     occupation 
      1     -10.4645      2.00000
      2      -9.7429      2.00000
      3      -3.7358      2.00000
      4      -3.6542      2.00000
      5      -3.6270      2.00000
      6      -3.5959      2.00000
      7      -3.5432      2.00000
      8      -3.4623      2.00000
      9      -3.1366      2.00000
     10      -3.1179      2.00000
     11      -3.0404      2.00000
     12      -3.0121      2.00000
     13      -1.5426      2.00000
     14       0.8725      2.00000
     15       1.1814      2.00000
     16       1.7478      2.00000
     17       2.3335      2.00000
     18       2.6168      2.00000
     19       7.1612      0.00000
     20       7.5667      0.00000
     21       8.9426      0.00000
     22       9.4119      0.00000
     23      10.0132      0.00000
     24      10.1130      0.00000
     25      11.2876      0.00000
     26      11.7562      0.00000
     27      12.8915      0.00000
     28      13.3968      0.00000

 k-point    10 :       0.3333    0.0000    0.2500
  band No.  band energies     occupation 
      1      -9.9735      2.00000
      2      -9.4650      2.00000
      3      -3.7585      2.00000
      4      -3.6507      2.00000
      5      -3.5518      2.00000
      6      -3.4401      2.00000
      7      -3.4154      2.00000
      8      -3.3759      2.00000
      9      -3.1252      2.00000
     10      -3.0855      2.00000
     11      -3.0222      2.00000
     12      -2.8948      2.00000
     13      -1.7392      2.00000
     14      -0.7144      2.00000
     15      -0.1292      2.00000
     16       1.0204      2.00000
     17       1.8792      2.00000
     18       2.0521      2.00000
     19       6.6593      0.00000
     20       7.3790      0.00000
     21       8.7731      0.00000
     22       9.5311      0.00000
     23      10.5507      0.00000
     24      11.3956      0.00000
     25      12.2852      0.00000
     26      13.1370      0.00000
     27      13.3601      0.00000
     28      14.4836      0.00000

 k-point    11 :       0.5000    0.0000    0.2500
  band No.  band energies     occupation 
      1      -9.6418      2.00000
      2      -9.3628      2.00000
      3      -3.7414      2.00000
      4      -3.6186      2.00000
      5      -3.5252      2.00000
      6      -3.3827      2.00000
      7      -3.3513      2.00000
      8      -3.2591      2.00000
      9      -3.0472      2.00000
     10      -3.0071      2.00000
     11      -2.8915      2.00000
     12      -2.8714      2.00000
     13      -2.3340      2.00000
     14      -1.7594      2.00000
     15       0.0949      2.00000
     16       0.6955      2.00000
     17       1.4424      2.00000
     18       1.7896      2.00000
     19       6.5739      0.00000
     20       6.8044      0.00000
     21       8.8323      0.00000
     22       9.1477      0.00000
     23      10.5077      0.00000
     24      11.2965      0.00000
     25      13.4651      0.00000
     26      14.0701      0.00000
     27      15.6447      0.00000
     28      16.4274      0.00000

 k-point    12 :       0.1667    0.1667    0.2500
  band No.  band energies     occupation 
      1     -10.1121      2.00000
      2      -9.5321      2.00000
      3      -3.7196      2.00000
      4      -3.6444      2.00000
      5      -3.5770      2.00000
      6      -3.5283      2.00000
      7      -3.4386      2.00000
      8      -3.4030      2.00000
      9      -3.1517      2.00000
     10      -3.0991      2.00000
     11      -3.0253      2.00000
     12      -2.9329      2.00000
     13      -1.4997      2.00000
     14      -0.0943      2.00000
     15       0.0451      2.00000
     16       0.8290      2.00000
     17       1.8284      2.00000
     18       2.0980      2.00000
     19       7.5154      0.00000
     20       8.2677      0.00000
     21       9.0618      0.00000
     22       9.1191      0.00000
     23      10.0250      0.00000
     24      10.5038      0.00000
     25      11.5595      0.00000
     26      12.3174      0.00000
     27      13.5519      0.00000
     28      13.9975      0.00000

 k-point    13 :       0.3333    0.1667    0.2500
  band No.  band energies     occupation 
      1      -9.6578      2.00000
      2      -9.3583      2.00000
      3      -3.6788      2.00000
      4      -3.5832      2.00000
      5      -3.5097      2.00000
      6      -3.3808      2.00000
      7      -3.3447      2.00000
      8      -3.3263      2.00000
      9      -3.1122      2.00000
     10      -3.0781      2.00000
     11      -2.9584      2.00000
     12      -2.7104      2.00000
     13      -2.1540      2.00000
     14      -1.3878      2.00000
     15      -0.2236      2.00000
     16       0.3460      2.00000
     17       1.0754      2.00000
     18       1.5833      2.00000
     19       7.3204      0.00000
     20       8.1944      0.00000
     21       8.7243      0.00000
     22       9.3420      0.00000
     23      10.1203      0.00000
     24      11.6847      0.00000
     25      12.4644      0.00000
     26      13.1027      0.00000
     27      14.0288      0.00000
     28      15.5430      0.00000

 k-point    14 :       0.3333    0.3333    0.2500
  band No.  band energies     occupation 
      1      -9.3999      2.00000
      2      -9.3999      2.00000
      3      -3.6339      2.00000
      4      -3.5005      2.00000
      5      -3.5005      2.00000
      6      -3.3451      2.00000
      7      -3.2321      2.00000
      8      -3.2321      2.00000
      9      -3.1366      2.00000
     10      -3.1277      2.00000
     11      -2.7658      2.00000
     12      -2.7657      2.00000
     13      -1.8846      2.00000
     14      -1.8846      2.00000
     15      -1.0701      2.00000
     16       0.3155      2.00000
     17       0.9772      2.00000
     18       0.9772      2.00000
     19       7.7444      0.00000
     20       8.5196      0.00000
     21       8.5196      0.00000
     22      10.8011      0.00000
     23      10.8202      0.00000
     24      10.8202      0.00000
     25      13.2073      0.00000
     26      13.4839      0.00000
     27      13.8317      0.00000
     28      13.8317      0.00000

 k-point    15 :       0.0000    0.0000    0.5000
  band No.  band energies     occupation 
      1     -10.3042      2.00000
      2     -10.3042      2.00000
      3      -3.7097      2.00000
      4      -3.7097      2.00000
      5      -3.6430      2.00000
      6      -3.6430      2.00000
      7      -3.6430      2.00000
      8      -3.6430      2.00000
      9      -3.0789      2.00000
     10      -3.0789      2.00000
     11      -3.0789      2.00000
     12      -3.0789      2.00000
     13      -0.0059      2.00000
     14      -0.0059      2.00000
     15       2.5402      2.00000
     16       2.5402      2.00000
     17       2.5402      2.00000
     18       2.5402      2.00000
     19       6.8957      0.00000
     20       6.8957      0.00000
     21       9.7866      0.00000
     22       9.7866      0.00000
     23       9.7866      0.00000
     24       9.7866      0.00000
     25      10.1571      0.00000
     26      10.1571      0.00000
     27      15.3034      0.00000
     28      15.3034      0.00000

 k-point    16 :       0.1667    0.0000    0.5000
  band No.  band energies     occupation 
      1     -10.1252      2.00000
      2     -10.1252      2.00000
      3      -3.7383      2.00000
      4      -3.7383      2.00000
      5      -3.5900      2.00000
      6      -3.5900      2.00000
      7      -3.5895      2.00000
      8      -3.5895      2.00000
      9      -3.0771      2.00000
     10      -3.0771      2.00000
     11      -3.0766      2.00000
     12      -3.0766      2.00000
     13      -0.1053      2.00000
     14      -0.1053      2.00000
     15       1.5141      2.00000
     16       1.5141      2.00000
     17       2.1602      2.00000
     18       2.1602      2.00000
     19       7.7348      0.00000
     20       7.7348      0.00000
     21       8.9198      0.00000
     22       8.9198      0.00000
     23      10.5579      0.00000
     24      10.5579      0.00000
     25      10.5770      0.00000
     26      10.5770      0.00000
     27      14.5639      0.00000
     28      14.5639      0.00000

 k-point    17 :       0.3333    0.0000    0.5000
  band No.  band energies     occupation 
      1      -9.7243      2.00000
      2      -9.7243      2.00000
      3      -3.7595      2.00000
      4      -3.7595      2.00000
      5      -3.4862      2.00000
      6      -3.4862      2.00000
      7      -3.4534      2.00000
      8      -3.4534      2.00000
      9      -3.0569      2.00000
     10      -3.0569      2.00000
     11      -3.0332      2.00000
     12      -3.0332      2.00000
     13      -1.2434      2.00000
     14      -1.2434      2.00000
     15       1.0902      2.00000
     16       1.0902      2.00000
     17       1.5071      2.00000
     18       1.5071      2.00000
     19       7.0004      0.00000
     20       7.0004      0.00000
     21       8.7346      0.00000
     22       8.7346      0.00000
     23      11.7691      0.00000
     24      11.7691      0.00000
     25      11.9434      0.00000
     26      11.9434      0.00000
     27      14.4599      0.00000
     28      14.4599      0.00000

 k-point    18 :       0.5000    0.0000    0.5000
  band No.  band energies     occupation 
      1      -9.4958      2.00000
      2      -9.4958      2.00000
      3      -3.7527      2.00000
      4      -3.7527      2.00000
      5      -3.4404      2.00000
      6      -3.4404      2.00000
      7      -3.3296      2.00000
      8      -3.3296      2.00000
      9      -3.0331      2.00000
     10      -3.0331      2.00000
     11      -2.8399      2.00000
     12      -2.8399      2.00000
     13      -2.2320      2.00000
     14      -2.2320      2.00000
     15       1.2128      2.00000
     16       1.2128      2.00000
     17       1.2174      2.00000
     18       1.2174      2.00000
     19       6.6307      0.00000
     20       6.6307      0.00000
     21       8.2303      0.00000
     22       8.2303      0.00000
     23      12.0277      0.00000
     24      12.0277      0.00000
     25      12.7139      0.00000
     26      12.7139      0.00000
     27      15.8536      0.00000
     28      15.8536      0.00000

 k-point    19 :       0.1667    0.1667    0.5000
  band No.  band energies     occupation 
      1      -9.8321      2.00000
      2      -9.8321      2.00000
      3      -3.7308      2.00000
      4      -3.7308      2.00000
      5      -3.5449      2.00000
      6      -3.5449      2.00000
      7      -3.4926      2.00000
      8      -3.4926      2.00000
      9      -3.0780      2.00000
     10      -3.0780      2.00000
     11      -3.0382      2.00000
     12      -3.0382      2.00000
     13      -0.7458      2.00000
     14      -0.7458      2.00000
     15       1.1052      2.00000
     16       1.1052      2.00000
     17       1.3459      2.00000
     18       1.3459      2.00000
     19       7.9237      0.00000
     20       7.9237      0.00000
     21       9.1212      0.00000
     22       9.1212      0.00000
     23      10.1726      0.00000
     24      10.1726      0.00000
     25      11.5780      0.00000
     26      11.5780      0.00000
     27      14.5294      0.00000
     28      14.5294      0.00000

 k-point    20 :       0.3333    0.1667    0.5000
  band No.  band energies     occupation 
      1      -9.5024      2.00000
      2      -9.5024      2.00000
      3      -3.6818      2.00000
      4      -3.6818      2.00000
      5      -3.4621      2.00000
      6      -3.4621      2.00000
      7      -3.3701      2.00000
      8      -3.3701      2.00000
      9      -3.0755      2.00000
     10      -3.0755      2.00000
     11      -2.8726      2.00000
     12      -2.8726      2.00000
     13      -1.8729      2.00000
     14      -1.8729      2.00000
     15       0.3964      2.00000
     16       0.3964      2.00000
     17       1.3924      2.00000
     18       1.3924      2.00000
     19       7.3997      0.00000
     20       7.3997      0.00000
     21       9.0455      0.00000
     22       9.0455      0.00000
     23      10.6729      0.00000
     24      10.6729      0.00000
     25      12.4339      0.00000
     26      12.4339      0.00000
     27      15.1607      0.00000
     28      15.1607      0.00000

 k-point    21 :       0.3333    0.3333    0.5000
  band No.  band energies     occupation 
      1      -9.3888      2.00000
      2      -9.3888      2.00000
      3      -3.5735      2.00000
      4      -3.5735      2.00000
      5      -3.5065      2.00000
      6      -3.5065      2.00000
      7      -3.2499      2.00000
      8      -3.2499      2.00000
      9      -3.1387      2.00000
     10      -3.1387      2.00000
     11      -2.6749      2.00000
     12      -2.6749      2.00000
     13      -2.1125      2.00000
     14      -2.1125      2.00000
     15      -0.4182      2.00000
     16      -0.4182      2.00000
     17       1.5190      2.00000
     18       1.5190      2.00000
     19       7.6821      0.00000
     20       7.6821      0.00000
     21       9.3784      0.00000
     22       9.3784      0.00000
     23      10.7586      0.00000
     24      10.7586      0.00000
     25      12.8722      0.00000
     26      12.8722      0.00000
     27      13.8049      0.00000
     28      13.8049      0.00000


--------------------------------------------------------------------------------------------------------


 soft charge-density along one line, spin component           1
         0         1         2         3         4         5         6         7         8         9
 total charge-density along one line

 pseudopotential strength for first ion, spin component:           1
 -9.221  -0.000  -0.000   0.001   0.000  -9.617  -0.000  -0.000
 -0.000  -9.220  -0.000   0.000   0.001  -0.000  -9.616  -0.000
 -0.000  -0.000  -9.221  -0.000   0.000  -0.000  -0.000  -9.617
  0.001   0.000  -0.000  -9.220  -0.000   0.001   0.000  -0.000
  0.000   0.001   0.000  -0.000  -9.221   0.000   0.001   0.000
 -9.617  -0.000  -0.000   0.001   0.000  -9.937  -0.000  -0.000
 -0.000  -9.616  -0.000   0.000   0.001  -0.000  -9.936  -0.000
 -0.000  -0.000  -9.617  -0.000   0.000  -0.000  -0.000  -9.937
[...]
     23      10.0314      0.00000
     24      10.5026      0.00000
     25      11.5629      0.00000
     26      12.3117      0.00000
     27      13.5503      0.00000
     28      14.0010      0.00000

 k-point    13 :       0.3333    0.1667    0.2500
  band No.  band energies     occupation 
      1      -9.6581      2.00000
      2      -9.3582      2.00000
      3      -3.6795      2.00000
      4      -3.5846      2.00000
      5      -3.5104      2.00000
      6      -3.3814      2.00000
      7      -3.3446      2.00000
      8      -3.3255      2.00000
      9      -3.1125      2.00000
     10      -3.0778      2.00000
     11      -2.9579      2.00000
     12      -2.7104      2.00000
     13      -2.1534      2.00000
     14      -1.3848      2.00000
     15      -0.2234      2.00000
     16       0.3439      2.00000
     17       1.0807      2.00000
     18       1.5794      2.00000
     19       7.3180      0.00000
     20       8.1934      0.00000
     21       8.7224      0.00000
     22       9.3422      0.00000
     23      10.1229      0.00000
     24      11.6861      0.00000
     25      12.4629      0.00000
     26      13.1002      0.00000
     27      14.0266      0.00000
     28      15.5411      0.00000

 k-point    14 :       0.3333    0.3333    0.2500
  band No.  band energies     occupation 
      1      -9.4002      2.00000
      2      -9.4002      2.00000
      3      -3.6353      2.00000
      4      -3.5029      2.00000
      5      -3.5029      2.00000
      6      -3.3443      2.00000
      7      -3.2325      2.00000
      8      -3.2325      2.00000
      9      -3.1362      2.00000
     10      -3.1268      2.00000
     11      -2.7652      2.00000
     12      -2.7652      2.00000
     13      -1.8821      2.00000
     14      -1.8821      2.00000
     15      -1.0680      2.00000
     16       0.3227      2.00000
     17       0.9730      2.00000
     18       0.9730      2.00000
     19       7.7358      0.00000
     20       8.5203      0.00000
     21       8.5203      0.00000
     22      10.7983      0.00000
     23      10.8228      0.00000
     24      10.8228      0.00000
     25      13.2075      0.00000
     26      13.4813      0.00000
     27      13.8335      0.00000
     28      13.8335      0.00000

 k-point    15 :       0.0000    0.0000    0.5000
  band No.  band energies     occupation 
      1     -10.3034      2.00000
      2     -10.3034      2.00000
      3      -3.7139      2.00000
      4      -3.7139      2.00000
      5      -3.6405      2.00000
      6      -3.6405      2.00000
      7      -3.6405      2.00000
      8      -3.6405      2.00000
      9      -3.0793      2.00000
     10      -3.0793      2.00000
     11      -3.0793      2.00000
     12      -3.0793      2.00000
     13      -0.0103      2.00000
     14      -0.0103      2.00000
     15       2.5395      2.00000
     16       2.5395      2.00000
     17       2.5395      2.00000
     18       2.5395      2.00000
     19       6.8986      0.00000
     20       6.8986      0.00000
     21       9.7892      0.00000
     22       9.7892      0.00000
     23       9.7892      0.00000
     24       9.7892      0.00000
     25      10.1595      0.00000
     26      10.1595      0.00000
     27      15.3020      0.00000
     28      15.3020      0.00000

 k-point    16 :       0.1667    0.0000    0.5000
  band No.  band energies     occupation 
      1     -10.1247      2.00000
      2     -10.1247      2.00000
      3      -3.7395      2.00000
      4      -3.7395      2.00000
      5      -3.5902      2.00000
      6      -3.5902      2.00000
      7      -3.5873      2.00000
      8      -3.5873      2.00000
      9      -3.0773      2.00000
     10      -3.0773      2.00000
     11      -3.0771      2.00000
     12      -3.0771      2.00000
     13      -0.1093      2.00000
     14      -0.1093      2.00000
     15       1.5142      2.00000
     16       1.5142      2.00000
     17       2.1606      2.00000
     18       2.1606      2.00000
     19       7.7361      0.00000
     20       7.7361      0.00000
     21       8.9211      0.00000
     22       8.9211      0.00000
     23      10.5581      0.00000
     24      10.5581      0.00000
     25      10.5813      0.00000
     26      10.5813      0.00000
     27      14.5595      0.00000
     28      14.5595      0.00000

 k-point    17 :       0.3333    0.0000    0.5000
  band No.  band energies     occupation 
      1      -9.7242      2.00000
      2      -9.7242      2.00000
      3      -3.7598      2.00000
      4      -3.7598      2.00000
      5      -3.4850      2.00000
      6      -3.4850      2.00000
      7      -3.4542      2.00000
      8      -3.4542      2.00000
      9      -3.0568      2.00000
     10      -3.0568      2.00000
     11      -3.0337      2.00000
     12      -3.0337      2.00000
     13      -1.2431      2.00000
     14      -1.2431      2.00000
     15       1.0872      2.00000
     16       1.0872      2.00000
     17       1.5095      2.00000
     18       1.5095      2.00000
     19       6.9990      0.00000
     20       6.9990      0.00000
     21       8.7392      0.00000
     22       8.7392      0.00000
     23      11.7631      0.00000
     24      11.7631      0.00000
     25      11.9440      0.00000
     26      11.9440      0.00000
     27      14.4582      0.00000
     28      14.4582      0.00000

 k-point    18 :       0.5000    0.0000    0.5000
  band No.  band energies     occupation 
      1      -9.4960      2.00000
      2      -9.4960      2.00000
      3      -3.7534      2.00000
      4      -3.7534      2.00000
      5      -3.4399      2.00000
      6      -3.4399      2.00000
      7      -3.3317      2.00000
      8      -3.3317      2.00000
      9      -3.0328      2.00000
     10      -3.0328      2.00000
     11      -2.8396      2.00000
     12      -2.8396      2.00000
     13      -2.2295      2.00000
     14      -2.2295      2.00000
     15       1.2134      2.00000
     16       1.2134      2.00000
     17       1.2160      2.00000
     18       1.2160      2.00000
     19       6.6282      0.00000
     20       6.6282      0.00000
     21       8.2359      0.00000
     22       8.2359      0.00000
     23      12.0196      0.00000
     24      12.0196      0.00000
     25      12.7124      0.00000
     26      12.7124      0.00000
     27      15.8539      0.00000
     28      15.8539      0.00000

 k-point    19 :       0.1667    0.1667    0.5000
  band No.  band energies     occupation 
      1      -9.8319      2.00000
      2      -9.8319      2.00000
      3      -3.7315      2.00000
      4      -3.7315      2.00000
      5      -3.5440      2.00000
      6      -3.5440      2.00000
      7      -3.4924      2.00000
      8      -3.4924      2.00000
      9      -3.0784      2.00000
     10      -3.0784      2.00000
     11      -3.0385      2.00000
     12      -3.0385      2.00000
     13      -0.7470      2.00000
     14      -0.7470      2.00000
     15       1.1049      2.00000
     16       1.1049      2.00000
     17       1.3465      2.00000
     18       1.3465      2.00000
     19       7.9219      0.00000
     20       7.9219      0.00000
     21       9.1233      0.00000
     22       9.1233      0.00000
     23      10.1776      0.00000
     24      10.1776      0.00000
     25      11.5734      0.00000
     26      11.5734      0.00000
     27      14.5291      0.00000
     28      14.5291      0.00000

 k-point    20 :       0.3333    0.1667    0.5000
  band No.  band energies     occupation 
      1      -9.5026      2.00000
      2      -9.5026      2.00000
      3      -3.6831      2.00000
      4      -3.6831      2.00000
      5      -3.4625      2.00000
      6      -3.4625      2.00000
      7      -3.3699      2.00000
      8      -3.3699      2.00000
      9      -3.0756      2.00000
     10      -3.0756      2.00000
     11      -2.8724      2.00000
     12      -2.8724      2.00000
     13      -1.8714      2.00000
     14      -1.8714      2.00000
     15       0.3994      2.00000
     16       0.3994      2.00000
     17       1.3891      2.00000
     18       1.3891      2.00000
     19       7.3980      0.00000
     20       7.3980      0.00000
     21       9.0492      0.00000
     22       9.0492      0.00000
     23      10.6683      0.00000
     24      10.6683      0.00000
     25      12.4347      0.00000
     26      12.4347      0.00000
     27      15.1576      0.00000
     28      15.1576      0.00000

 k-point    21 :       0.3333    0.3333    0.5000
  band No.  band energies     occupation 
      1      -9.3891      2.00000
      2      -9.3891      2.00000
      3      -3.5763      2.00000
      4      -3.5763      2.00000
      5      -3.5070      2.00000
      6      -3.5070      2.00000
      7      -3.2494      2.00000
      8      -3.2494      2.00000
      9      -3.1380      2.00000
     10      -3.1380      2.00000
     11      -2.6748      2.00000
     12      -2.6748      2.00000
     13      -2.1104      2.00000
     14      -2.1104      2.00000
     15      -0.4138      2.00000
     16      -0.4138      2.00000
     17       1.5152      2.00000
     18       1.5152      2.00000
     19       7.6827      0.00000
     20       7.6827      0.00000
     21       9.3725      0.00000
     22       9.3725      0.00000
     23      10.7608      0.00000
     24      10.7608      0.00000
     25      12.8714      0.00000
     26      12.8714      0.00000
     27      13.8085      0.00000
     28      13.8085      0.00000


--------------------------------------------------------------------------------------------------------


 soft charge-density along one line, spin component           1
         0         1         2         3         4         5         6         7         8         9
 total charge-density along one line

 pseudopotential strength for first ion, spin component:           1
 -9.221  -0.000  -0.000   0.001   0.000  -9.617  -0.000  -0.000
 -0.000  -9.220  -0.000   0.000   0.001  -0.000  -9.616  -0.000
 -0.000  -0.000  -9.221  -0.000   0.000  -0.000  -0.000  -9.617
  0.001   0.000  -0.000  -9.220  -0.000   0.001   0.000  -0.000
  0.000   0.001   0.000  -0.000  -9.221   0.000   0.001   0.000
 -9.617  -0.000  -0.000   0.001   0.000  -9.937  -0.000  -0.000
 -0.000  -9.616  -0.000   0.000   0.001  -0.000  -9.936  -0.000
 -0.000  -0.000  -9.617  -0.000   0.000  -0.000  -0.000  -9.937
  0.001   0.000  -0.000  -9.616  -0.000   0.001   0.000  -0.000
  0.000   0.001   0.000  -0.000  -9.617   0.000   0.001   0.000
  0.000   0.000  -0.000  -0.000  -0.000   0.000   0.000  -0.000
  0.000   0.000  -0.000  -0.000  -0.000   0.000   0.000  -0.000
  0.000   0.002  -0.000   0.000  -0.003   0.000   0.002  -0.000
  0.000   0.000  -0.003   0.000   0.000   0.000   0.000  -0.002
 -0.003   0.000  -0.000   0.002   0.000  -0.002   0.000  -0.000
  0.000   0.003  -0.000   0.000  -0.003   0.000   0.002  -0.000
  0.000   0.000  -0.004   0.000   0.000   0.000   0.000  -0.003
 -0.003   0.000  -0.000   0.003   0.000  -0.003   0.000  -0.000
 total augmentation occupancy for first ion, spin component:           1
  3.918   0.000   0.000  -0.848   0.000  -1.944  -0.000  -0.000   0.851   0.000  -0.000   0.000   0.000  -0.000  -0.677  -0.000
  0.000   3.330   0.000  -0.000  -0.848  -0.000  -1.356  -0.000   0.000   0.851   0.000   0.000   0.484   0.000  -0.000  -0.074
  0.000   0.000   4.518  -0.000  -0.000  -0.000  -0.000  -2.544   0.000   0.000  -0.006   0.003   0.000  -0.832  -0.000  -0.000
 -0.848  -0.000  -0.000   3.330  -0.000   0.851   0.000   0.000  -1.356   0.000   0.000   0.000  -0.000   0.000   0.484   0.000
  0.000  -0.848  -0.000  -0.000   3.918  -0.000   0.851   0.000   0.000  -1.944  -0.000   0.000  -0.677   0.000  -0.000   0.104
 -1.944  -0.000  -0.000   0.851  -0.000   1.961   0.000   0.000  -0.854   0.000   0.000   0.000  -0.000   0.000   0.661   0.000
 -0.000  -1.356  -0.000   0.000   0.851   0.000   1.373   0.000  -0.000  -0.854   0.000  -0.000  -0.473  -0.000   0.000   0.082
 -0.000  -0.000  -2.544   0.000   0.000   0.000   0.000   2.561  -0.000  -0.000   0.007  -0.003  -0.000   0.813   0.000   0.000
  0.851   0.000   0.000  -1.356   0.000  -0.854  -0.000  -0.000   1.373  -0.000   0.000   0.000   0.000  -0.000  -0.473  -0.000
 -0.000   0.851   0.000   0.000  -1.944   0.000  -0.854  -0.000  -0.000   1.961   0.000  -0.000   0.661  -0.000   0.000  -0.115
  0.000  -0.000  -0.006   0.000  -0.000   0.000   0.000   0.007   0.000   0.000   2.801  -0.697  -0.000   0.000   0.000   0.000
  0.000   0.000   0.003   0.000   0.000  -0.000  -0.000  -0.003  -0.000  -0.000  -0.697   0.204  -0.000   0.001   0.000  -0.000
  0.000   0.484   0.000  -0.000  -0.677  -0.000  -0.473  -0.000   0.000   0.661   0.000  -0.000   0.434   0.000  -0.000  -0.077
 -0.000   0.000  -0.832   0.000   0.000   0.000  -0.000   0.813  -0.000  -0.000   0.000   0.001   0.000   0.436   0.000  -0.000
 -0.677  -0.000  -0.000   0.484  -0.000   0.661   0.000   0.000  -0.473   0.000   0.000   0.000  -0.000   0.000   0.434   0.000
 -0.000  -0.074  -0.000   0.000   0.104   0.000   0.082   0.000  -0.000  -0.115   0.000  -0.000  -0.077  -0.000   0.000   0.016
  0.000   0.000   0.127  -0.000  -0.000  -0.000   0.000  -0.142   0.000   0.000   0.000  -0.000  -0.000  -0.077  -0.000  -0.000
  0.104   0.000   0.000  -0.074   0.000  -0.115  -0.000  -0.000   0.082  -0.000   0.000   0.000   0.000  -0.000  -0.077  -0.000


------------------------ aborting loop because EDIFF is reached ----------------------------------------


    CHARGE:  cpu time      0.2491: real time      0.2110
    FORLOC:  cpu time      0.0025: real time      0.0020
    FORNL :  cpu time      0.0486: real time      0.0469
    STRESS:  cpu time      0.4146: real time      0.4402
    FORCOR:  cpu time      0.1215: real time      0.1177
    FORHAR:  cpu time      0.0285: real time      0.0244
    MIXING:  cpu time      0.0064: real time      0.0054
    OFIELD:  cpu time      0.0000: real time      0.0000

  FORCE on cell =-STRESS in cart. coord.  units (eV):
  Direction    XX          YY          ZZ          XY          YZ          ZX
  --------------------------------------------------------------------------------------
  Alpha Z   157.89935   157.89935   157.89935
  Ewald    -873.49122  -873.49122  -839.13456     0.00000     0.00000    -0.00000
  Hartree   433.56461   433.56461   456.33300     0.00000    -0.00000    -0.00000
  E(xc)    -187.86906  -187.86905  -187.81934     0.00000    -0.00000     0.00000
  Local      37.41282    37.41325   -19.23553    -0.00000     0.00000    -0.00000
  n-local    80.26589    84.99183    82.59139     2.66331     0.17475    -0.58954
  augment    47.37880    47.37850    47.42138     0.00000     0.00000     0.00000
  Kinetic   303.95965   310.75740   307.04008     5.32561     0.39522    -0.81741
  Fock        0.00000     0.00000     0.00000     0.00000     0.00000     0.00000
  -------------------------------------------------------------------------------------
  Total       4.88277     4.88277     5.09578     0.00000    -0.00000     0.00000
  in kB     109.23740   109.23740   114.00303     0.00000    -0.00000     0.00000
  external pressure =      110.83 kB  Pullay stress =        0.00 kB


 VOLUME and BASIS-vectors are now :
 -----------------------------------------------------------------------------
  energy-cutoff  :      520.00
  volume of cell :       71.62
      direct lattice vectors                 reciprocal lattice vectors
     1.847349436 -3.199703082  0.000000000     0.270658052 -0.156264499  0.000000000
     1.847349436  3.199703082  0.000000000     0.270658052  0.156264499 -0.000000000
     0.000000000  0.000000000  6.057820084    -0.000000000  0.000000000  0.165075883

  length of vectors
     3.694698872  3.694698872  6.057820084     0.312528999  0.312528999  0.165075883


 FORCES acting on ions
    electron-ion (+dipol)            ewald-force                    non-local-force                 convergence-correction
 -----------------------------------------------------------------------------------------------
   0.194E-07 -.449E-05 -.389E+01   -.103E-13 0.534E-11 0.385E+01   -.155E-16 -.968E-18 0.404E-01   -.508E-13 0.147E-09 0.599E-05
   0.194E-07 0.449E-05 -.389E+01   0.287E-13 -.533E-11 0.385E+01   -.617E-17 0.966E-17 0.404E-01   0.117E-12 -.147E-09 0.599E-05
   -.542E-06 0.135E-06 0.384E+01   -.303E-13 0.498E-11 -.385E+01   0.169E-17 0.233E-16 0.130E-01   -.347E-13 -.411E-10 0.955E-05
   -.542E-06 -.135E-06 0.384E+01   0.169E-13 -.498E-11 -.385E+01   0.955E-17 -.447E-16 0.130E-01   0.307E-13 0.412E-10 0.955E-05
 -----------------------------------------------------------------------------------------------
   -.104E-05 -.921E-11 -.107E+00   0.504E-14 0.106E-14 0.888E-15   -.104E-16 -.127E-16 0.107E+00   0.625E-13 0.950E-13 0.311E-04


 POSITION                                       TOTAL-FORCE (eV/Angst)
 -----------------------------------------------------------------------------------
      1.84735      1.06657      0.00333        -0.000000     -0.000000     -0.000022
      1.84735     -1.06657      3.03224         0.000000     -0.000000     -0.000022
      1.84735      1.06657      2.26835        -0.000000      0.000000      0.000022
      1.84735     -1.06657      5.29726         0.000000      0.000000      0.000022
 -----------------------------------------------------------------------------------
    total drift:                               -0.000001     -0.000000     -0.000180


--------------------------------------------------------------------------------------------------------



  FREE ENERGIE OF THE ION-ELECTRON SYSTEM (eV)
  ---------------------------------------------------
  free  energy   TOTEN  =       -13.39779192 eV

  energy  without entropy=      -13.39779192  energy(sigma->0) =      -13.39779192

 d Force = 0.4517574E-05[-0.328E-07, 0.907E-05]  d Energy = 0.4541634E-05-0.241E-07
 d Force = 0.5811642E-02[ 0.574E-02, 0.588E-02]  d Ewald  = 0.5811676E-02-0.333E-07


--------------------------------------------------------------------------------------------------------


    POTLOK:  cpu time      0.0865: real time      0.0959


--------------------------------------------------------------------------------------------------------


 Quasi-Newton relaxation of ions (Broydens 2nd method)
  g(Force)  = 0.934E-10   g(Stress)= 0.000E+00

 retain information from N=  1 steps
 eigenvalues of (default step * inverse Hessian matrix)
  average eigenvalue of G=   1.2656
 eigenvalue spectrum of G is  1.2656


--------------------------------------------------------------------------------------------------------


  
 reached required accuracy - stopping structural energy minimisation
 writing wavefunctions
     LOOP+:  cpu time     52.6960: real time     57.5374
    4ORBIT:  cpu time      0.0000: real time      0.0000

 total amount of memory used by VASP MPI-rank0    47028. kBytes
=======================================================================

   base      :      30000. kBytes
   nonl-proj :      11979. kBytes
   fftplans  :        894. kBytes
   grid      :       2739. kBytes
   one-center:         62. kBytes
   wavefun   :       1354. kBytes

  
  
 General timing and accounting informations for this job:
 ========================================================
  
                  Total CPU time used (sec):      279.261
                            User time (sec):      174.230
                          System time (sec):      105.031
                         Elapsed time (sec):      298.896
  
                   Maximum memory used (kb):    75628544.
                   Average memory used (kb):          N/A
  
                          Minor page faults:        11080
                          Major page faults:          108
                 Voluntary context switches:            7
