72   
4    

1    
  0.0033749968256213  -0.0058456659773597   0.0073781830899067
  -0.0212881100    0.0376744300   -0.0482219700
   0.0013887100   -0.0027499800   -0.0018248500
   0.0000669400   -0.0058429500   -0.0036758300
  -0.0007652700   -0.0017390500   -0.0020066900
  -0.0001347400    0.0028396600   -0.0034861500
   0.0004521500   -0.0007732700   -0.0017328500
  -0.0020834100   -0.0013247300   -0.0010748000
   0.0004546000   -0.0007728700   -0.0017318400
   0.0042256900    0.0041821800   -0.0044093600
   0.0000688000   -0.0001107400    0.0011890500
   0.0003732000   -0.0001894600   -0.0007982300
   0.0001613200    0.0006900500   -0.0000024500
  -0.0001739800    0.0005247400   -0.0004835500
   0.0005028100   -0.0002892400   -0.0003215300
   0.0000482000   -0.0000782700   -0.0005528600
  -0.0003867900   -0.0000993300   -0.0008811000
   0.0000463700   -0.0000782200   -0.0005477400
  -0.0005824900   -0.0004171900    0.0000780600
   0.0000907200   -0.0046649100    0.0018723400
  -0.0000737500   -0.0008812000   -0.0005781000
  -0.0056376700    0.0031394200   -0.0004399100
   0.0049038300    0.0026104400    0.0007150900
   0.0006038100    0.0000457600   -0.0006130500
  -0.0003463300    0.0001300100   -0.0007933500
   0.0004385200   -0.0006752300   -0.0005709400
   0.0003593200    0.0002777300   -0.0005931100
  -0.0006194600    0.0004343800   -0.0007021300
   0.0000966300    0.0023321100   -0.0036955100
   0.0003697200   -0.0006214300   -0.0005791300
   0.0004153400   -0.0003551500    0.0051095800
  -0.0011523000   -0.0008917300    0.0007136800
   0.0002294800    0.0002588200   -0.0009521200
  -0.0003466200   -0.0002973900   -0.0004487800
  -0.0000038700   -0.0004180300   -0.0009731400
   0.0003596600   -0.0002331500   -0.0001826000
  -0.0002475600    0.0006487900   -0.0006972900
   0.0014457700   -0.0024920300    0.0291981000
  -0.0005637000    0.0011190500    0.0008062700
   0.0005241400   -0.0000530300    0.0020942400
  -0.0003758900   -0.0005091300    0.0014543300
  -0.0009220700   -0.0004282600    0.0014584700
  -0.0000396300    0.0000815300    0.0012016000
   0.0006484200    0.0009111800    0.0008019900
  -0.0001233700    0.0002374900    0.0012239600
   0.0004642800   -0.0006050600    0.0020948500
   0.0003947900   -0.0006663300   -0.0004949200
  -0.0005164200    0.0002106600    0.0013530100
  -0.0000371300    0.0005503600   -0.0003681000
   0.0002457300   -0.0000163800    0.0006840200
  -0.0000426900   -0.0000981600    0.0003156700
  -0.0000268800    0.0000370000    0.0006997100
   0.0006309200    0.0000537800    0.0015488000
  -0.0001412300    0.0002362700    0.0006332000
  -0.0004229300   -0.0003829500   -0.0005461300
  -0.0000277600    0.0004552100   -0.0003258900
  -0.0001011700    0.0001995000    0.0007167400
   0.0010745000   -0.0005819700   -0.0009181000
  -0.0007632300   -0.0003647500   -0.0006150100
  -0.0002372500   -0.0000499400    0.0007564000
   0.0001489000   -0.0001063200    0.0007633100
  -0.0000299700    0.0001351800    0.0007738300
  -0.0001175900    0.0000661100    0.0006676600
   0.0002664000   -0.0001993500    0.0007508800
   0.0011159700   -0.0115511200    0.0001994600
  -0.0007701500    0.0018331000    0.0012301300
   0.0232482000   -0.0147759500    0.0128626600
  -0.0060890300   -0.0061578800    0.0066642800
  -0.0004412100   -0.0002039500    0.0012883700
   0.0003752000    0.0010868400    0.0012198700
   0.0003418400    0.0009423600    0.0010817400
  -0.0009828700   -0.0003266200    0.0013523800
   0.0000336400   -0.0008714200    0.0012653500

1    
 -0.0033749968256213   0.0058456659773597  -0.0073781830899067
   0.0226063800   -0.0383305000    0.0454244800
  -0.0013904800    0.0027508900   -0.0000944700
  -0.0000798200    0.0058651800    0.0017634200
   0.0007713300    0.0017448300    0.0000933200
   0.0001351400   -0.0028304800    0.0015774500
  -0.0004532800    0.0007928900   -0.0001729200
   0.0020892800    0.0013399500   -0.0008308000
  -0.0004512800    0.0007902400   -0.0001741900
  -0.0042296000   -0.0041799100    0.0025049800
  -0.0000683700    0.0001244100   -0.0031030200
  -0.0003773600    0.0002007200   -0.0011055700
  -0.0001634400   -0.0006778900   -0.0018973600
   0.0001758000   -0.0005148400   -0.0014246000
  -0.0005044100    0.0003075300   -0.0015844400
  -0.0000483700    0.0000900200   -0.0013487400
   0.0003915500    0.0001120300   -0.0010234200
  -0.0000468400    0.0000909600   -0.0013507700
   0.0005831500    0.0004346000   -0.0019806400
  -0.0000976100    0.0046608500   -0.0037434200
   0.0000743500    0.0008618100   -0.0013192600
   0.0056304500   -0.0031498500   -0.0014615000
  -0.0049096600   -0.0026232600   -0.0026072900
  -0.0005991500   -0.0000572400   -0.0012942100
   0.0003464100   -0.0001460500   -0.0011087100
  -0.0004397000    0.0006623700   -0.0013345700
  -0.0003570800   -0.0002912800   -0.0013081200
   0.0006206100   -0.0004472700   -0.0012008200
  -0.0000930300   -0.0023518100    0.0017966900
  -0.0003699800    0.0006026800   -0.0013220900
  -0.0004518900    0.0003647900   -0.0070241100
   0.0011681900    0.0008804800   -0.0026095300
  -0.0002282000   -0.0002751800   -0.0009431000
   0.0003398300    0.0002854600   -0.0014574600
   0.0000098900    0.0004050800   -0.0009245300
  -0.0003545700    0.0002241800   -0.0017170600
   0.0002496300   -0.0006612800   -0.0011982900
  -0.0014917800    0.0026101200   -0.0261698200
   0.0005724500   -0.0011064200    0.0010970800
  -0.0005324500    0.0000870500   -0.0002056900
   0.0003780200    0.0005395200    0.0004487800
   0.0009345500    0.0004300900    0.0004546700
   0.0000375200   -0.0000584800    0.0007158400
  -0.0006562700   -0.0008927100    0.0010984700
   0.0001312600   -0.0002163400    0.0006861500
  -0.0004771500    0.0006116300   -0.0002051400
  -0.0003765800    0.0006799600    0.0023961900
   0.0005225200   -0.0001736100    0.0005441100
   0.0000600200   -0.0005211200    0.0022569200
  -0.0002509700    0.0000315600    0.0012227400
   0.0000404900    0.0001115700    0.0015979300
   0.0000162600   -0.0000263000    0.0012135300
  -0.0006254500   -0.0000426100    0.0003640800
   0.0001237400   -0.0002302200    0.0012927100
   0.0004048400    0.0003971000    0.0024471400
   0.0000359100   -0.0004746100    0.0022526800
   0.0001264200   -0.0002016100    0.0011784700
  -0.0010692000    0.0005683400    0.0028461200
   0.0007620200    0.0003531400    0.0025498200
   0.0002296100    0.0000292800    0.0011470100
  -0.0001486500    0.0000825400    0.0011513800
   0.0000049100   -0.0001461600    0.0011285200
   0.0001178700   -0.0001056900    0.0012321700
  -0.0002671200    0.0001850000    0.0011497500
  -0.0011392600    0.0115406700    0.0016260800
   0.0007843400   -0.0018443500    0.0006960500
  -0.0244668000    0.0153751300   -0.0113004000
   0.0060692500    0.0060769300   -0.0047050300
   0.0004338600    0.0001778500    0.0006067800
  -0.0003836900   -0.0011174400    0.0006780600
  -0.0003477700   -0.0009533200    0.0008165500
   0.0009946700    0.0003041700    0.0005452200
  -0.0000252900    0.0008642100    0.0006497800

37   
  0.0033749968256213  -0.0058456659773597   0.0073781830899067
   0.0015003100   -0.0026113800    0.0261602900
   0.0003871000   -0.0000407900    0.0002713100
  -0.0001458600    0.0012754200   -0.0011747400
   0.0002205700    0.0007887800   -0.0010039500
   0.0006267600   -0.0006165200    0.0000978800
  -0.0001355200    0.0002432800   -0.0006913600
  -0.0002455400   -0.0002168500   -0.0002809100
  -0.0000449800    0.0000857800   -0.0007169800
  -0.0010913200   -0.0007131100   -0.0006242000
   0.0003839400   -0.0006589000   -0.0023971900
  -0.0015383400    0.0007446300   -0.0014390700
  -0.0002837300   -0.0006965900   -0.0013821900
   0.0003799200   -0.0013165300   -0.0013464100
  -0.0009218600    0.0005749700   -0.0014764700
  -0.0001393600    0.0002472800   -0.0012843500
   0.0017291300    0.0006564800   -0.0013753900
  -0.0000239900    0.0000497400   -0.0012107700
   0.0004514200    0.0003922000   -0.0014462000
   0.0010776500   -0.0286268600    0.0114942700
  -0.0011369400    0.0016295100   -0.0006874500
   0.0096091400   -0.0068887600   -0.0018204000
   0.0081138500    0.0020993400    0.0047026300
  -0.0008364500    0.0000367600   -0.0009759300
   0.0003716300    0.0006489600   -0.0003194800
   0.0007013000    0.0007367100   -0.0004943500
  -0.0009916700    0.0001060600   -0.0008755700
   0.0004156400   -0.0006343600   -0.0006483700
  -0.0000401700    0.0000039400   -0.0018840500
  -0.0000661600    0.0002323900   -0.0011848000
   0.0006569500   -0.0003402800   -0.0032011000
  -0.0003644700   -0.0001266600   -0.0025492800
  -0.0001159100   -0.0001045600   -0.0010371200
   0.0001429400    0.0000495000   -0.0012540600
  -0.0000755100    0.0001767900   -0.0011836800
  -0.0001191600    0.0000258100   -0.0011916900
   0.0001428800   -0.0002558600   -0.0011423600
  -0.0295405500    0.0520342100   -0.0648883400
   0.0021331500   -0.0052911000    0.0007577000
   0.0034005500   -0.0054495300    0.0000284300
  -0.0020242500   -0.0032999000    0.0004411000
   0.0030632900    0.0006956400    0.0003377900
   0.0001301900   -0.0002182400    0.0007844400
  -0.0007249000   -0.0020717300    0.0008111100
   0.0001290800   -0.0002215600    0.0007807200
   0.0029793700    0.0001850400   -0.0000207000
  -0.0001120700    0.0002099600    0.0017750900
   0.0002290300   -0.0001288500    0.0017488300
   0.0000081600   -0.0001849100    0.0017960000
  -0.0000720600    0.0000719100    0.0017698600
   0.0000294100    0.0000633200    0.0017777400
   0.0000391200   -0.0000482900    0.0011407300
  -0.0002941100   -0.0000819100    0.0017430500
   0.0000377800   -0.0000492900    0.0011348300
   0.0001681900    0.0001676200    0.0017957400
  -0.0003455100   -0.0044044500    0.0066168700
   0.0002760100   -0.0002753400    0.0009423900
  -0.0013023500    0.0011368600    0.0034797800
   0.0022919600    0.0021093600    0.0050513600
   0.0003822400   -0.0001346200    0.0011539900
  -0.0000819400    0.0000635800    0.0008450500
  -0.0002014900   -0.0001037400    0.0008840800
   0.0001873000   -0.0000968900    0.0009947500
  -0.0002831500    0.0000202100    0.0010020400
  -0.0003367400    0.0006093600    0.0026337500
   0.0001211600   -0.0003684000    0.0009373300
   0.0029768200   -0.0013369900    0.0074009400
  -0.0020077200   -0.0003917700    0.0050284900
   0.0000152200    0.0000820300    0.0008161900
  -0.0000817300   -0.0003635700    0.0011908200
  -0.0000464600   -0.0001990900    0.0010254300
   0.0001813500    0.0000852000    0.0008563400
   0.0000814800    0.0002295400    0.0009998500

37   
 -0.0033749968256213   0.0058456659773597  -0.0073781830899067
  -0.0014265500    0.0024631400   -0.0291985500
  -0.0003844000    0.0000585100   -0.0021764800
   0.0001489600   -0.0012703600   -0.0007356900
  -0.0002250600   -0.0007753300   -0.0009055200
  -0.0006234200    0.0006261600   -0.0020096900
   0.0001349800   -0.0002278800   -0.0012192200
   0.0002423800    0.0002354400   -0.0016301000
   0.0000465600   -0.0000740600   -0.0011889900
   0.0010963500    0.0007282100   -0.0012871800
  -0.0003804200    0.0006642300    0.0004816000
   0.0015253000   -0.0007339700   -0.0004708900
   0.0002776300    0.0007155200   -0.0005239500
  -0.0003741000    0.0013254300   -0.0005667100
   0.0009209500   -0.0005585600   -0.0004365100
   0.0001391500   -0.0002343300   -0.0006239100
  -0.0017158900   -0.0006417500   -0.0005328800
   0.0000244300   -0.0000327900   -0.0006931800
  -0.0004565600   -0.0003809700   -0.0004596400
  -0.0011633800    0.0272491800   -0.0130862700
   0.0011422600   -0.0016399100   -0.0012235400
  -0.0096770500    0.0068330200    0.0000083500
  -0.0081078500   -0.0020918400   -0.0066700800
   0.0008305400   -0.0000510500   -0.0009355600
  -0.0003800200   -0.0006614100   -0.0015899300
  -0.0006918400   -0.0007539300   -0.0014071600
   0.0009925200   -0.0001175400   -0.0010378500
  -0.0004142200    0.0006265000   -0.0012585600
   0.0000418800   -0.0000186300   -0.0000295500
   0.0000658300   -0.0002503700   -0.0007242400
  -0.0006669300    0.0003341900    0.0013055000
   0.0003669700    0.0001141900    0.0006348500
   0.0001195700    0.0000891000   -0.0008678200
  -0.0001456100   -0.0000613800   -0.0006532600
   0.0000792500   -0.0001933600   -0.0007282200
   0.0001227800   -0.0000346200   -0.0007255100
  -0.0001444900    0.0002436500   -0.0007639800
   0.0296132600   -0.0504563100    0.0675501200
  -0.0021248000    0.0052772000    0.0011451800
  -0.0034122100    0.0054959800    0.0018842800
   0.0020116600    0.0032933400    0.0014679900
  -0.0030562200   -0.0006780600    0.0015555700
  -0.0001258700    0.0002311100    0.0011238300
   0.0007476800    0.0021135600    0.0011029500
  -0.0001308700    0.0002346800    0.0011224300
  -0.0029814100   -0.0001744800    0.0019341400
   0.0001147100   -0.0001955600    0.0001332400
  -0.0002312400    0.0001493700    0.0001667100
  -0.0000080900    0.0001992300    0.0001112800
   0.0000754200   -0.0000590400    0.0001467700
  -0.0000398900   -0.0000481000    0.0001303600
  -0.0000314300    0.0000718600    0.0007738400
   0.0002908800    0.0001015300    0.0001735600
  -0.0000391600    0.0000726500    0.0007740300
  -0.0001618000   -0.0001606000    0.0001043200
   0.0003322600    0.0043290200   -0.0046273300
  -0.0002816300    0.0002553400    0.0009738500
   0.0013064400   -0.0011567800   -0.0016076200
  -0.0022812700   -0.0021061700   -0.0031076600
  -0.0003795000    0.0001203800    0.0007594900
   0.0000831500   -0.0000781200    0.0010581500
   0.0002051000    0.0000885200    0.0010318000
  -0.0001849400    0.0000786500    0.0009205600
   0.0002853800   -0.0000327000    0.0009081600
   0.0003443500   -0.0006086100   -0.0007295500
  -0.0001171300    0.0003489900    0.0009792100
  -0.0030290400    0.0013470000   -0.0055734300
   0.0020282400    0.0003713300   -0.0031379900
  -0.0000134700   -0.0000965000    0.0010968400
   0.0000831800    0.0003445300    0.0007261400
   0.0000416600    0.0001766000    0.0008872400
  -0.0001863000   -0.0001030300    0.0010630400
  -0.0000875600   -0.0002492400    0.0009087800
