mesh: [    16,    16,    16 ]
nqpoint: 576    
reciprocal_lattice:
- [   0.25226382,  -0.14564458,   0.00000000 ] # a*
- [   0.25226382,   0.14564458,   0.00000000 ] # b*
- [   0.00000000,   0.00000000,   0.15385713 ] # c*
natom:   4      
lattice:
- [     1.982051998845760,    -3.433014765244304,     0.000000000000000 ] # a
- [     1.982051998845760,     3.433014765244304,     0.000000000000000 ] # b
- [     0.000000000000000,     0.000000000000000,     6.499536131492979 ] # c
points:
- symbol: Zn # 1
  coordinates: [  0.333333333333336,  0.666666666666664,  0.999941419792315 ]
  mass: 65.380000
- symbol: Zn # 2
  coordinates: [  0.666666666666664,  0.333333333333336,  0.499941419792315 ]
  mass: 65.380000
- symbol: S # 3
  coordinates: [  0.333333333333336,  0.666666666666664,  0.375058580207685 ]
  mass: 32.065000
- symbol: S # 4
  coordinates: [  0.666666666666664,  0.333333333333336,  0.875058580207685 ]
  mass: 32.065000

phonon:
- q-position: [    0.0312500,    0.0312500,    0.0312500 ]
  distance_from_gamma:  0.016483306
  weight: 4    
  band:
  - # 1
    frequency:     0.3967973691
  - # 2
    frequency:     0.4124702679
  - # 3
    frequency:     0.7968536012
  - # 4
    frequency:     2.1863858323
  - # 5
    frequency:     2.2347035226
  - # 6
    frequency:     5.1600297874
  - # 7
    frequency:     6.5139555562
  - # 8
    frequency:     6.7405269100
  - # 9
    frequency:     6.7971049761
  - # 10
    frequency:     6.8447687614
  - # 11
    frequency:     6.8555679775
  - # 12
    frequency:     8.5005212745

- q-position: [    0.0937500,    0.0312500,    0.0312500 ]
  distance_from_gamma:  0.033170869
  weight: 8    
  band:
  - # 1
    frequency:     0.8176878751
  - # 2
    frequency:     0.8729852585
  - # 3
    frequency:     1.5050502610
  - # 4
    frequency:     2.2529105351
  - # 5
    frequency:     2.4429506556
  - # 6
    frequency:     5.0713070058
  - # 7
    frequency:     6.5344603963
  - # 8
    frequency:     6.7905106000
  - # 9
    frequency:     6.8856521884
  - # 10
    frequency:     6.9878222225
  - # 11
    frequency:     7.1850946494
  - # 12
    frequency:     8.4708969818

- q-position: [    0.1562500,    0.0312500,    0.0312500 ]
  distance_from_gamma:  0.050909719
  weight: 8    
  band:
  - # 1
    frequency:     1.2120439359
  - # 2
    frequency:     1.3466103024
  - # 3
    frequency:     2.2074763819
  - # 4
    frequency:     2.3800107797
  - # 5
    frequency:     2.7639527119
  - # 6
    frequency:     4.9500668380
  - # 7
    frequency:     6.5855322119
  - # 8
    frequency:     6.8555676944
  - # 9
    frequency:     7.0065921095
  - # 10
    frequency:     7.2095659213
  - # 11
    frequency:     7.6498263945
  - # 12
    frequency:     8.4222012900

- q-position: [    0.2187500,    0.0312500,    0.0312500 ]
  distance_from_gamma:  0.068892512
  weight: 8    
  band:
  - # 1
    frequency:     1.5593010566
  - # 2
    frequency:     1.7804337759
  - # 3
    frequency:     2.4466547532
  - # 4
    frequency:     2.8495858189
  - # 5
    frequency:     3.1820133300
  - # 6
    frequency:     4.8640166088
  - # 7
    frequency:     6.6664339099
  - # 8
    frequency:     6.9085393781
  - # 9
    frequency:     7.1325055323
  - # 10
    frequency:     7.4562777110
  - # 11
    frequency:     8.1103292688
  - # 12
    frequency:     8.3699753917

- q-position: [    0.2812500,    0.0312500,    0.0312500 ]
  distance_from_gamma:  0.086968056
  weight: 8    
  band:
  - # 1
    frequency:     1.8391629200
  - # 2
    frequency:     2.1510860542
  - # 3
    frequency:     2.5537801586
  - # 4
    frequency:     3.1089924065
  - # 5
    frequency:     3.7526101447
  - # 6
    frequency:     4.8880156434
  - # 7
    frequency:     6.7754856045
  - # 8
    frequency:     6.9256660715
  - # 9
    frequency:     7.2497597765
  - # 10
    frequency:     7.6701829680
  - # 11
    frequency:     8.2822477295
  - # 12
    frequency:     8.5184099489

- q-position: [    0.3437500,    0.0312500,    0.0312500 ]
  distance_from_gamma:  0.105088500
  weight: 8    
  band:
  - # 1
    frequency:     2.0330185417
  - # 2
    frequency:     2.4439804979
  - # 3
    frequency:     2.6415409141
  - # 4
    frequency:     3.1494089504
  - # 5
    frequency:     4.2996177560
  - # 6
    frequency:     5.0136527064
  - # 7
    frequency:     6.8950538913
  - # 8
    frequency:     6.9167054585
  - # 9
    frequency:     7.3462369359
  - # 10
    frequency:     7.7942202084
  - # 11
    frequency:     8.2860921911
  - # 12
    frequency:     8.7386528902

- q-position: [    0.4062500,    0.0312500,    0.0312500 ]
  distance_from_gamma:  0.123234041
  weight: 8    
  band:
  - # 1
    frequency:     2.1364979640
  - # 2
    frequency:     2.6540932633
  - # 3
    frequency:     2.7113752361
  - # 4
    frequency:     3.0938740184
  - # 5
    frequency:     4.7285344409
  - # 6
    frequency:     5.1258822715
  - # 7
    frequency:     6.8710210575
  - # 8
    frequency:     7.0334911454
  - # 9
    frequency:     7.4119457291
  - # 10
    frequency:     7.8060609025
  - # 11
    frequency:     8.3593970720
  - # 12
    frequency:     8.8225002522

- q-position: [    0.4687500,    0.0312500,    0.0312500 ]
  distance_from_gamma:  0.141395016
  weight: 8    
  band:
  - # 1
    frequency:     2.1717457962
  - # 2
    frequency:     2.7478222472
  - # 3
    frequency:     2.7670156293
  - # 4
    frequency:     3.0344577650
  - # 5
    frequency:     4.9799578150
  - # 6
    frequency:     5.1336061514
  - # 7
    frequency:     6.8500984835
  - # 8
    frequency:     7.1077759316
  - # 9
    frequency:     7.4409950949
  - # 10
    frequency:     7.7809802753
  - # 11
    frequency:     8.4310720513
  - # 12
    frequency:     8.8246434881

- q-position: [   -0.4687500,    0.0312500,    0.0312500 ]
  distance_from_gamma:  0.132312997
  weight: 8    
  band:
  - # 1
    frequency:     2.1607607126
  - # 2
    frequency:     2.7255260597
  - # 3
    frequency:     2.7351964911
  - # 4
    frequency:     3.0588323694
  - # 5
    frequency:     4.8823944145
  - # 6
    frequency:     5.1430050280
  - # 7
    frequency:     6.8575862775
  - # 8
    frequency:     7.0810158155
  - # 9
    frequency:     7.4312610784
  - # 10
    frequency:     7.7918956856
  - # 11
    frequency:     8.4030674035
  - # 12
    frequency:     8.8277104058

- q-position: [   -0.4062500,    0.0312500,    0.0312500 ]
  distance_from_gamma:  0.114158881
  weight: 8    
  band:
  - # 1
    frequency:     2.0951808820
  - # 2
    frequency:     2.5595481109
  - # 3
    frequency:     2.6792792904
  - # 4
    frequency:     3.1274777822
  - # 5
    frequency:     4.5320732205
  - # 6
    frequency:     5.0794485669
  - # 7
    frequency:     6.8873686307
  - # 8
    frequency:     6.9736324623
  - # 9
    frequency:     7.3834051215
  - # 10
    frequency:     7.8112072026
  - # 11
    frequency:     8.3158636158
  - # 12
    frequency:     8.7959533651

- q-position: [   -0.3437500,    0.0312500,    0.0312500 ]
  distance_from_gamma:  0.096024253
  weight: 8    
  band:
  - # 1
    frequency:     1.9477230510
  - # 2
    frequency:     2.3077378685
  - # 3
    frequency:     2.5996790071
  - # 4
    frequency:     3.1479186631
  - # 5
    frequency:     4.0372580741
  - # 6
    frequency:     4.9440420061
  - # 7
    frequency:     6.8381506246
  - # 8
    frequency:     6.9202404414
  - # 9
    frequency:     7.3013068183
  - # 10
    frequency:     7.7468858350
  - # 11
    frequency:     8.2766650364
  - # 12
    frequency:     8.6457236389

- q-position: [   -0.2812500,    0.0312500,    0.0312500 ]
  distance_from_gamma:  0.077922716
  weight: 8    
  band:
  - # 1
    frequency:     1.7089021721
  - # 2
    frequency:     1.9748185769
  - # 3
    frequency:     2.5031333419
  - # 4
    frequency:     3.0167166385
  - # 5
    frequency:     3.4585243392
  - # 6
    frequency:     4.8595449518
  - # 7
    frequency:     6.7177220030
  - # 8
    frequency:     6.9221815113
  - # 9
    frequency:     7.1929834775
  - # 10
    frequency:     7.5708250709
  - # 11
    frequency:     8.2656514466
  - # 12
    frequency:     8.3882273639

- q-position: [   -0.2187500,    0.0312500,    0.0312500 ]
  distance_from_gamma:  0.059884290
  weight: 8    
  band:
  - # 1
    frequency:     1.3928687647
  - # 2
    frequency:     1.5701150293
  - # 3
    frequency:     2.3783056298
  - # 4
    frequency:     2.5964931453
  - # 5
    frequency:     2.9543340909
  - # 6
    frequency:     4.8973981024
  - # 7
    frequency:     6.6222891810
  - # 8
    frequency:     6.8854934104
  - # 9
    frequency:     7.0698666543
  - # 10
    frequency:     7.3335278028
  - # 11
    frequency:     7.8893688579
  - # 12
    frequency:     8.3941927599

- q-position: [   -0.1562500,    0.0312500,    0.0312500 ]
  distance_from_gamma:  0.041990384
  weight: 8    
  band:
  - # 1
    frequency:     1.0193175181
  - # 2
    frequency:     1.1130707508
  - # 3
    frequency:     1.8702612553
  - # 4
    frequency:     2.3043716240
  - # 5
    frequency:     2.5931551725
  - # 6
    frequency:     5.0112223216
  - # 7
    frequency:     6.5562305430
  - # 8
    frequency:     6.8225436419
  - # 9
    frequency:     6.9443913964
  - # 10
    frequency:     7.0917789415
  - # 11
    frequency:     7.4094321795
  - # 12
    frequency:     8.4484423466

- q-position: [   -0.0937500,    0.0312500,    0.0312500 ]
  distance_from_gamma:  0.024558954
  weight: 8    
  band:
  - # 1
    frequency:     0.6118334399
  - # 2
    frequency:     0.6308380274
  - # 3
    frequency:     1.1399012272
  - # 4
    frequency:     2.2134479800
  - # 5
    frequency:     2.3209076003
  - # 6
    frequency:     5.1227524102
  - # 7
    frequency:     6.5203964196
  - # 8
    frequency:     6.7626244290
  - # 9
    frequency:     6.8345258580
  - # 10
    frequency:     6.9045110795
  - # 11
    frequency:     6.9942236506
  - # 12
    frequency:     8.4884770495

- q-position: [   -0.0312500,    0.0312500,    0.0312500 ]
  distance_from_gamma:  0.010294558
  weight: 4    
  band:
  - # 1
    frequency:     0.2162830231
  - # 2
    frequency:     0.2578694409
  - # 3
    frequency:     0.5360766290
  - # 4
    frequency:     2.1729325215
  - # 5
    frequency:     2.1897924707
  - # 6
    frequency:     5.1795475740
  - # 7
    frequency:     6.5131012123
  - # 8
    frequency:     6.7284938730
  - # 9
    frequency:     6.7609181478
  - # 10
    frequency:     6.7998037698
  - # 11
    frequency:     6.8110895757
  - # 12
    frequency:     8.5066363368

- q-position: [    0.0937500,    0.0937500,    0.0312500 ]
  distance_from_gamma:  0.047543208
  weight: 4    
  band:
  - # 1
    frequency:     1.1903465298
  - # 2
    frequency:     1.2576882165
  - # 3
    frequency:     2.0215945097
  - # 4
    frequency:     2.4096975127
  - # 5
    frequency:     2.6637279953
  - # 6
    frequency:     4.9719642853
  - # 7
    frequency:     6.5730205633
  - # 8
    frequency:     6.8905293357
  - # 9
    frequency:     6.9561718870
  - # 10
    frequency:     7.1642415102
  - # 11
    frequency:     7.5432078050
  - # 12
    frequency:     8.4319177054

- q-position: [    0.1562500,    0.0937500,    0.0312500 ]
  distance_from_gamma:  0.063900645
  weight: 8    
  band:
  - # 1
    frequency:     1.5538728945
  - # 2
    frequency:     1.6652270071
  - # 3
    frequency:     2.3530230153
  - # 4
    frequency:     2.7957313586
  - # 5
    frequency:     2.9594090222
  - # 6
    frequency:     4.8752771316
  - # 7
    frequency:     6.6402240428
  - # 8
    frequency:     6.9747411842
  - # 9
    frequency:     7.0944635769
  - # 10
    frequency:     7.3669862880
  - # 11
    frequency:     7.9594569825
  - # 12
    frequency:     8.3778467271

- q-position: [    0.2187500,    0.0937500,    0.0312500 ]
  distance_from_gamma:  0.081050071
  weight: 8    
  band:
  - # 1
    frequency:     1.8571669553
  - # 2
    frequency:     2.0408161231
  - # 3
    frequency:     2.5154491484
  - # 4
    frequency:     3.0662352510
  - # 5
    frequency:     3.4688976042
  - # 6
    frequency:     4.8499851209
  - # 7
    frequency:     6.7363261980
  - # 8
    frequency:     7.0234950756
  - # 9
    frequency:     7.2379484384
  - # 10
    frequency:     7.5711208121
  - # 11
    frequency:     8.2787843903
  - # 12
    frequency:     8.3721743007

- q-position: [    0.2812500,    0.0937500,    0.0312500 ]
  distance_from_gamma:  0.098579011
  weight: 8    
  band:
  - # 1
    frequency:     2.0867703319
  - # 2
    frequency:     2.3553839396
  - # 3
    frequency:     2.6288904373
  - # 4
    frequency:     3.1466943718
  - # 5
    frequency:     4.0180064851
  - # 6
    frequency:     4.9270571698
  - # 7
    frequency:     6.8561098296
  - # 8
    frequency:     7.0324201411
  - # 9
    frequency:     7.3537924229
  - # 10
    frequency:     7.7340270684
  - # 11
    frequency:     8.2603555641
  - # 12
    frequency:     8.6127959717

- q-position: [    0.3437500,    0.0937500,    0.0312500 ]
  distance_from_gamma:  0.116316011
  weight: 8    
  band:
  - # 1
    frequency:     2.2333697502
  - # 2
    frequency:     2.5953792350
  - # 3
    frequency:     2.7131586881
  - # 4
    frequency:     3.1213544241
  - # 5
    frequency:     4.4841896693
  - # 6
    frequency:     5.0398307572
  - # 7
    frequency:     6.9646204694
  - # 8
    frequency:     7.0340153178
  - # 9
    frequency:     7.4322890606
  - # 10
    frequency:     7.8028587162
  - # 11
    frequency:     8.2814353193
  - # 12
    frequency:     8.7448969584

- q-position: [    0.4062500,    0.0937500,    0.0312500 ]
  distance_from_gamma:  0.134178588
  weight: 8    
  band:
  - # 1
    frequency:     2.3025845309
  - # 2
    frequency:     2.7529675694
  - # 3
    frequency:     2.7685416473
  - # 4
    frequency:     3.0602606920
  - # 5
    frequency:     4.8179076966
  - # 6
    frequency:     5.0848818718
  - # 7
    frequency:     6.9646418608
  - # 8
    frequency:     7.1172871333
  - # 9
    frequency:     7.4724405073
  - # 10
    frequency:     7.7878243023
  - # 11
    frequency:     8.3537134582
  - # 12
    frequency:     8.7735774206

- q-position: [   -0.5312500,    0.0937500,    0.0312500 ]
  distance_from_gamma:  0.143142289
  weight: 8    
  band:
  - # 1
    frequency:     2.3147557254
  - # 2
    frequency:     2.7796585399
  - # 3
    frequency:     2.7930829727
  - # 4
    frequency:     3.0388053487
  - # 5
    frequency:     4.9117717978
  - # 6
    frequency:     5.0717703788
  - # 7
    frequency:     6.9591492172
  - # 8
    frequency:     7.1437336423
  - # 9
    frequency:     7.4796696302
  - # 10
    frequency:     7.7774419188
  - # 11
    frequency:     8.3777268790
  - # 12
    frequency:     8.7715348523

- q-position: [   -0.4687500,    0.0937500,    0.0312500 ]
  distance_from_gamma:  0.125234952
  weight: 8    
  band:
  - # 1
    frequency:     2.2764271280
  - # 2
    frequency:     2.6854726802
  - # 3
    frequency:     2.7451098033
  - # 4
    frequency:     3.0911882505
  - # 5
    frequency:     4.6707412957
  - # 6
    frequency:     5.0755436176
  - # 7
    frequency:     6.9718735662
  - # 8
    frequency:     7.0733341328
  - # 9
    frequency:     7.4569624125
  - # 10
    frequency:     7.8005306430
  - # 11
    frequency:     8.3166277177
  - # 12
    frequency:     8.7684148074

- q-position: [   -0.4062500,    0.0937500,    0.0312500 ]
  distance_from_gamma:  0.107427916
  weight: 8    
  band:
  - # 1
    frequency:     2.1706423425
  - # 2
    frequency:     2.4851119296
  - # 3
    frequency:     2.6742135469
  - # 4
    frequency:     3.1427168864
  - # 5
    frequency:     4.2647528612
  - # 6
    frequency:     4.9859813950
  - # 7
    frequency:     6.9181749662
  - # 8
    frequency:     7.0277602307
  - # 9
    frequency:     7.3979327156
  - # 10
    frequency:     7.7824932865
  - # 11
    frequency:     8.2610288300
  - # 12
    frequency:     8.6945933619

- q-position: [   -0.3437500,    0.0937500,    0.0312500 ]
  distance_from_gamma:  0.089780883
  weight: 8    
  band:
  - # 1
    frequency:     1.9818877887
  - # 2
    frequency:     2.2068716787
  - # 3
    frequency:     2.5765006055
  - # 4
    frequency:     3.1239662101
  - # 5
    frequency:     3.7500302321
  - # 6
    frequency:     4.8776635867
  - # 7
    frequency:     6.7940344307
  - # 8
    frequency:     7.0325014746
  - # 9
    frequency:     7.3001864099
  - # 10
    frequency:     7.6610841389
  - # 11
    frequency:     8.2741630097
  - # 12
    frequency:     8.4992981283

- q-position: [   -0.2812500,    0.0937500,    0.0312500 ]
  distance_from_gamma:  0.072410928
  weight: 8    
  band:
  - # 1
    frequency:     1.7140453646
  - # 2
    frequency:     1.8592691540
  - # 3
    frequency:     2.4431251929
  - # 4
    frequency:     2.9651788100
  - # 5
    frequency:     3.1903683203
  - # 6
    frequency:     4.8498159189
  - # 7
    frequency:     6.6847846321
  - # 8
    frequency:     7.0040481185
  - # 9
    frequency:     7.1685455971
  - # 10
    frequency:     7.4711445666
  - # 11
    frequency:     8.1526431229
  - # 12
    frequency:     8.3517313154

- q-position: [   -0.2187500,    0.0937500,    0.0312500 ]
  distance_from_gamma:  0.055578448
  weight: 8    
  band:
  - # 1
    frequency:     1.3782545824
  - # 2
    frequency:     1.4628186481
  - # 3
    frequency:     2.2241111712
  - # 4
    frequency:     2.5759316223
  - # 5
    frequency:     2.7990989621
  - # 6
    frequency:     4.9190765835
  - # 7
    frequency:     6.6029557278
  - # 8
    frequency:     6.9369695517
  - # 9
    frequency:     7.0204797420
  - # 10
    frequency:     7.2634621386
  - # 11
    frequency:     7.7512840106
  - # 12
    frequency:     8.4060614281

- q-position: [   -0.1562500,    0.0937500,    0.0312500 ]
  distance_from_gamma:  0.039968373
  weight: 8    
  band:
  - # 1
    frequency:     0.9978024338
  - # 2
    frequency:     1.0574974849
  - # 3
    frequency:     1.7650026009
  - # 4
    frequency:     2.3114730550
  - # 5
    frequency:     2.5438183649
  - # 6
    frequency:     5.0251374453
  - # 7
    frequency:     6.5502959083
  - # 8
    frequency:     6.8371438938
  - # 9
    frequency:     6.9117287942
  - # 10
    frequency:     7.0717268490
  - # 11
    frequency:     7.3495487887
  - # 12
    frequency:     8.4538274055

- q-position: [   -0.0937500,    0.0937500,    0.0312500 ]
  distance_from_gamma:  0.027728391
  weight: 4    
  band:
  - # 1
    frequency:     0.6794839242
  - # 2
    frequency:     0.7215542749
  - # 3
    frequency:     1.2805872556
  - # 4
    frequency:     2.2226338929
  - # 5
    frequency:     2.3659582435
  - # 6
    frequency:     5.1050285723
  - # 7
    frequency:     6.5248302802
  - # 8
    frequency:     6.7644753069
  - # 9
    frequency:     6.8679692064
  - # 10
    frequency:     6.9215118258
  - # 11
    frequency:     7.0634711084
  - # 12
    frequency:     8.4825618499

- q-position: [    0.1562500,    0.1562500,    0.0312500 ]
  distance_from_gamma:  0.078978929
  weight: 4    
  band:
  - # 1
    frequency:     1.9014812771
  - # 2
    frequency:     1.9985677987
  - # 3
    frequency:     2.4847174388
  - # 4
    frequency:     3.0794388115
  - # 5
    frequency:     3.3168669928
  - # 6
    frequency:     4.8378915304
  - # 7
    frequency:     6.7234327300
  - # 8
    frequency:     7.1064048888
  - # 9
    frequency:     7.2248793876
  - # 10
    frequency:     7.5175824952
  - # 11
    frequency:     8.2574444201
  - # 12
    frequency:     8.3208777270

- q-position: [    0.2187500,    0.1562500,    0.0312500 ]
  distance_from_gamma:  0.095157426
  weight: 8    
  band:
  - # 1
    frequency:     2.1809876191
  - # 2
    frequency:     2.3052307883
  - # 3
    frequency:     2.6215207904
  - # 4
    frequency:     3.1487254729
  - # 5
    frequency:     3.7931987854
  - # 6
    frequency:     4.8704394256
  - # 7
    frequency:     6.8337532189
  - # 8
    frequency:     7.1792513650
  - # 9
    frequency:     7.3756623992
  - # 10
    frequency:     7.6510263873
  - # 11
    frequency:     8.2601935631
  - # 12
    frequency:     8.4898744909

- q-position: [    0.2812500,    0.1562500,    0.0312500 ]
  distance_from_gamma:  0.111960198
  weight: 8    
  band:
  - # 1
    frequency:     2.3803490191
  - # 2
    frequency:     2.5578026679
  - # 3
    frequency:     2.7369739575
  - # 4
    frequency:     3.1375453632
  - # 5
    frequency:     4.2271734899
  - # 6
    frequency:     4.9447350279
  - # 7
    frequency:     6.9607563729
  - # 8
    frequency:     7.2019650504
  - # 9
    frequency:     7.4796361279
  - # 10
    frequency:     7.7579062033
  - # 11
    frequency:     8.2215955555
  - # 12
    frequency:     8.6275706939

- q-position: [    0.3437500,    0.1562500,    0.0312500 ]
  distance_from_gamma:  0.129143803
  weight: 8    
  band:
  - # 1
    frequency:     2.5028949933
  - # 2
    frequency:     2.7410114698
  - # 3
    frequency:     2.8169208024
  - # 4
    frequency:     3.0885185908
  - # 5
    frequency:     4.5785841022
  - # 6
    frequency:     4.9900301870
  - # 7
    frequency:     7.0690071340
  - # 8
    frequency:     7.2160544465
  - # 9
    frequency:     7.5169462712
  - # 10
    frequency:     7.8003362384
  - # 11
    frequency:     8.2394028802
  - # 12
    frequency:     8.6765291540

- q-position: [    0.4062500,    0.1562500,    0.0312500 ]
  distance_from_gamma:  0.146574362
  weight: 8    
  band:
  - # 1
    frequency:     2.5537436500
  - # 2
    frequency:     2.8394107710
  - # 3
    frequency:     2.8506172124
  - # 4
    frequency:     3.0457472853
  - # 5
    frequency:     4.7941475668
  - # 6
    frequency:     4.9637477281
  - # 7
    frequency:     7.1044467952
  - # 8
    frequency:     7.2549994205
  - # 9
    frequency:     7.5130277353
  - # 10
    frequency:     7.7956290896
  - # 11
    frequency:     8.2779528571
  - # 12
    frequency:     8.6779379328

- q-position: [   -0.5312500,    0.1562500,    0.0312500 ]
  distance_from_gamma:  0.137834038
  weight: 8    
  band:
  - # 1
    frequency:     2.5369271479
  - # 2
    frequency:     2.8025926322
  - # 3
    frequency:     2.8405751871
  - # 4
    frequency:     3.0629561906
  - # 5
    frequency:     4.7094349387
  - # 6
    frequency:     4.9840356607
  - # 7
    frequency:     7.0954002766
  - # 8
    frequency:     7.2362956035
  - # 9
    frequency:     7.5169932157
  - # 10
    frequency:     7.7993219860
  - # 11
    frequency:     8.2620490151
  - # 12
    frequency:     8.6794542530

- q-position: [   -0.4687500,    0.1562500,    0.0312500 ]
  distance_from_gamma:  0.120514493
  weight: 8    
  band:
  - # 1
    frequency:     2.4509511086
  - # 2
    frequency:     2.6587432714
  - # 3
    frequency:     2.7819413706
  - # 4
    frequency:     3.1151211490
  - # 5
    frequency:     4.4157039718
  - # 6
    frequency:     4.9753797751
  - # 7
    frequency:     7.0213207565
  - # 8
    frequency:     7.2061826177
  - # 9
    frequency:     7.5058313540
  - # 10
    frequency:     7.7887375774
  - # 11
    frequency:     8.2229159712
  - # 12
    frequency:     8.6613796430

- q-position: [   -0.4062500,    0.1562500,    0.0312500 ]
  distance_from_gamma:  0.103499517
  weight: 8    
  band:
  - # 1
    frequency:     2.2905115800
  - # 2
    frequency:     2.4394766565
  - # 3
    frequency:     2.6830790468
  - # 4
    frequency:     3.1506236145
  - # 5
    frequency:     4.0180598777
  - # 6
    frequency:     4.9064996989
  - # 7
    frequency:     6.8964546194
  - # 8
    frequency:     7.1949894895
  - # 9
    frequency:     7.4361844115
  - # 10
    frequency:     7.7097766603
  - # 11
    frequency:     8.2357585439
  - # 12
    frequency:     8.5709834816

- q-position: [   -0.3437500,    0.1562500,    0.0312500 ]
  distance_from_gamma:  0.086968056
  weight: 8    
  band:
  - # 1
    frequency:     2.0513173579
  - # 2
    frequency:     2.1572242977
  - # 3
    frequency:     2.5543532543
  - # 4
    frequency:     3.1264950753
  - # 5
    frequency:     3.5574774949
  - # 6
    frequency:     4.8455710752
  - # 7
    frequency:     6.7755516882
  - # 8
    frequency:     7.1507122488
  - # 9
    frequency:     7.3023024801
  - # 10
    frequency:     7.5864898791
  - # 11
    frequency:     8.2894555063
  - # 12
    frequency:     8.3848290307

- q-position: [   -0.2812500,    0.1562500,    0.0312500 ]
  distance_from_gamma:  0.071257428
  weight: 8    
  band:
  - # 1
    frequency:     1.7335550754
  - # 2
    frequency:     1.8331105277
  - # 3
    frequency:     2.4164804972
  - # 4
    frequency:     2.9922805869
  - # 5
    frequency:     3.0914568484
  - # 6
    frequency:     4.8488137453
  - # 7
    frequency:     6.6782135130
  - # 8
    frequency:     7.0454549700
  - # 9
    frequency:     7.1539486415
  - # 10
    frequency:     7.4442730793
  - # 11
    frequency:     8.1140168233
  - # 12
    frequency:     8.3503975038

- q-position: [   -0.2187500,    0.1562500,    0.0312500 ]
  distance_from_gamma:  0.057049849
  weight: 8    
  band:
  - # 1
    frequency:     1.3742089024
  - # 2
    frequency:     1.5005106121
  - # 3
    frequency:     2.2932753190
  - # 4
    frequency:     2.5651858501
  - # 5
    frequency:     2.8611127394
  - # 6
    frequency:     4.9113315677
  - # 7
    frequency:     6.6094403442
  - # 8
    frequency:     6.9075821198
  - # 9
    frequency:     7.0455673624
  - # 10
    frequency:     7.2875024427
  - # 11
    frequency:     7.8016669185
  - # 12
    frequency:     8.4020284604

- q-position: [   -0.1562500,    0.1562500,    0.0312500 ]
  distance_from_gamma:  0.045767185
  weight: 4    
  band:
  - # 1
    frequency:     1.0885684895
  - # 2
    frequency:     1.2134969692
  - # 3
    frequency:     2.0402794483
  - # 4
    frequency:     2.3127192726
  - # 5
    frequency:     2.6716713498
  - # 6
    frequency:     4.9850625506
  - # 7
    frequency:     6.5679507522
  - # 8
    frequency:     6.8263338712
  - # 9
    frequency:     6.9753905549
  - # 10
    frequency:     7.1402829310
  - # 11
    frequency:     7.5147563411
  - # 12
    frequency:     8.4378092485

- q-position: [    0.2187500,    0.2187500,    0.0312500 ]
  distance_from_gamma:  0.110470100
  weight: 4    
  band:
  - # 1
    frequency:     2.4567438502
  - # 2
    frequency:     2.5433440656
  - # 3
    frequency:     2.7496281358
  - # 4
    frequency:     3.1494716443
  - # 5
    frequency:     4.1046236652
  - # 6
    frequency:     4.9040364613
  - # 7
    frequency:     6.9543857975
  - # 8
    frequency:     7.3004773905
  - # 9
    frequency:     7.5280254531
  - # 10
    frequency:     7.6941879550
  - # 11
    frequency:     8.2092901354
  - # 12
    frequency:     8.5632728567

- q-position: [    0.2812500,    0.2187500,    0.0312500 ]
  distance_from_gamma:  0.126551318
  weight: 8    
  band:
  - # 1
    frequency:     2.6564409839
  - # 2
    frequency:     2.7350160864
  - # 3
    frequency:     2.8714307494
  - # 4
    frequency:     3.1122506509
  - # 5
    frequency:     4.3812164844
  - # 6
    frequency:     4.9114956564
  - # 7
    frequency:     7.0828778322
  - # 8
    frequency:     7.3646275908
  - # 9
    frequency:     7.6049531483
  - # 10
    frequency:     7.7545895069
  - # 11
    frequency:     8.1641073815
  - # 12
    frequency:     8.5822313530

- q-position: [    0.3437500,    0.2187500,    0.0312500 ]
  distance_from_gamma:  0.143142289
  weight: 8    
  band:
  - # 1
    frequency:     2.7783018189
  - # 2
    frequency:     2.8647042451
  - # 3
    frequency:     2.9454872298
  - # 4
    frequency:     3.0665291991
  - # 5
    frequency:     4.6001870780
  - # 6
    frequency:     4.8676460066
  - # 7
    frequency:     7.1812213329
  - # 8
    frequency:     7.4197393591
  - # 9
    frequency:     7.5530838950
  - # 10
    frequency:     7.8337018166
  - # 11
    frequency:     8.1457052724
  - # 12
    frequency:     8.5736173938

- q-position: [   -0.5937500,    0.2187500,    0.0312500 ]
  distance_from_gamma:  0.151576834
  weight: 8    
  band:
  - # 1
    frequency:     2.8049026987
  - # 2
    frequency:     2.9059121796
  - # 3
    frequency:     2.9467845502
  - # 4
    frequency:     3.0550988602
  - # 5
    frequency:     4.6685028678
  - # 6
    frequency:     4.8359038752
  - # 7
    frequency:     7.2027769161
  - # 8
    frequency:     7.4593737809
  - # 9
    frequency:     7.5089901348
  - # 10
    frequency:     7.8501461789
  - # 11
    frequency:     8.1452402432
  - # 12
    frequency:     8.5693630891

- q-position: [   -0.5312500,    0.2187500,    0.0312500 ]
  distance_from_gamma:  0.134794714
  weight: 8    
  band:
  - # 1
    frequency:     2.7276596090
  - # 2
    frequency:     2.8076537735
  - # 3
    frequency:     2.9180160254
  - # 4
    frequency:     3.0881340943
  - # 5
    frequency:     4.5001031430
  - # 6
    frequency:     4.8961445798
  - # 7
    frequency:     7.1393488560
  - # 8
    frequency:     7.3892859067
  - # 9
    frequency:     7.5883806343
  - # 10
    frequency:     7.8001270957
  - # 11
    frequency:     8.1509234298
  - # 12
    frequency:     8.5793032659

- q-position: [   -0.4687500,    0.2187500,    0.0312500 ]
  distance_from_gamma:  0.118433858
  weight: 8    
  band:
  - # 1
    frequency:     2.5662562517
  - # 2
    frequency:     2.6463003699
  - # 3
    frequency:     2.8134912084
  - # 4
    frequency:     3.1337424004
  - # 5
    frequency:     4.2483877472
  - # 6
    frequency:     4.9132656368
  - # 7
    frequency:     7.0193068610
  - # 8
    frequency:     7.3376183648
  - # 9
    frequency:     7.5866053693
  - # 10
    frequency:     7.7153598647
  - # 11
    frequency:     8.1845349752
  - # 12
    frequency:     8.5781515971

- q-position: [   -0.4062500,    0.2187500,    0.0312500 ]
  distance_from_gamma:  0.102695806