nqpoint: 255    
npath: 5      
segment_nqpoint:
- 51
- 51
- 51
- 51
- 51
labels:
- [ '$Gamma$', 'A' ]
- [ 'A', 'H' ]
- [ 'H', 'K' ]
- [ 'K', 'L' ]
- [ 'L', 'M' ]
reciprocal_lattice:
- [   0.26786776,  -0.15465353,   0.00000000 ] # a*
- [   0.26786776,   0.15465353,   0.00000000 ] # b*
- [   0.00000000,   0.00000000,   0.16337407 ] # c*
natom: 4      
lattice:
- [     1.866592659107172,    -3.233033322608715,     0.000000000000000 ] # a
- [     1.866592659107172,     3.233033322608715,     0.000000000000000 ] # b
- [     0.000000000000000,     0.000000000000000,     6.120922376260378 ] # c
points:
- symbol: Zn # 1
  coordinates: [  0.333333333333336,  0.666666666666664,  0.000484262645839 ]
  mass: 65.380000
- symbol: Zn # 2
  coordinates: [  0.666666666666664,  0.333333333333336,  0.500484262645839 ]
  mass: 65.380000
- symbol: S # 3
  coordinates: [  0.333333333333336,  0.666666666666664,  0.374515737354161 ]
  mass: 32.065000
- symbol: S # 4
  coordinates: [  0.666666666666664,  0.333333333333336,  0.874515737354161 ]
  mass: 32.065000

phonon:
- q-position: [    0.0000000,    0.0000000,    0.0000000 ]
  distance:    0.0000000
  band:
  - # 1
    frequency:   -0.0000001071
  - # 2
    frequency:    0.0000001298
  - # 3
    frequency:    0.0000001574
  - # 4
    frequency:    1.7710127266
  - # 5
    frequency:    1.7710127266
  - # 6
    frequency:    6.0993453448
  - # 7
    frequency:    9.1543176307
  - # 8
    frequency:    9.2193288893
  - # 9
    frequency:    9.2193288893
  - # 10
    frequency:    9.4921965545
  - # 11
    frequency:    9.4921965545
  - # 12
    frequency:   10.9701568590

- q-position: [    0.0000000,    0.0000000,    0.0100000 ]
  distance:    0.0016337
  band:
  - # 1
    frequency:    0.0377811923
  - # 2
    frequency:    0.0377811923
  - # 3
    frequency:    0.1110557471
  - # 4
    frequency:    1.7709707248
  - # 5
    frequency:    1.7709707248
  - # 6
    frequency:    6.0985108437
  - # 7
    frequency:    9.1556233839
  - # 8
    frequency:    9.2193720017
  - # 9
    frequency:    9.2193720017
  - # 10
    frequency:    9.4921072212
  - # 11
    frequency:    9.4921072212
  - # 12
    frequency:   10.9706140967

- q-position: [    0.0000000,    0.0000000,    0.0200000 ]
  distance:    0.0032675
  band:
  - # 1
    frequency:    0.0755399727
  - # 2
    frequency:    0.0755399727
  - # 3
    frequency:    0.2220436118
  - # 4
    frequency:    1.7708442664
  - # 5
    frequency:    1.7708442664
  - # 6
    frequency:    6.0960098101
  - # 7
    frequency:    9.1595363044
  - # 8
    frequency:    9.2195013719
  - # 9
    frequency:    9.2195013719
  - # 10
    frequency:    9.4918393658
  - # 11
    frequency:    9.4918393658
  - # 12
    frequency:   10.9719815152

- q-position: [    0.0000000,    0.0000000,    0.0300000 ]
  distance:    0.0049012
  band:
  - # 1
    frequency:    0.1132539563
  - # 2
    frequency:    0.1132539563
  - # 3
    frequency:    0.3328959038
  - # 4
    frequency:    1.7706319942
  - # 5
    frequency:    1.7706319942
  - # 6
    frequency:    6.0918496122
  - # 7
    frequency:    9.1660433999
  - # 8
    frequency:    9.2197170993
  - # 9
    frequency:    9.2197170993
  - # 10
    frequency:    9.4913934226
  - # 11
    frequency:    9.4913934226
  - # 12
    frequency:   10.9742462756

- q-position: [    0.0000000,    0.0000000,    0.0400000 ]
  distance:    0.0065350
  band:
  - # 1
    frequency:    0.1509008122
  - # 2
    frequency:    0.1509008122
  - # 3
    frequency:    0.4435453156
  - # 4
    frequency:    1.7703316524
  - # 5
    frequency:    1.7703316524
  - # 6
    frequency:    6.0860423958
  - # 7
    frequency:    9.1751231009
  - # 8
    frequency:    9.2200193481
  - # 9
    frequency:    9.2200193481
  - # 10
    frequency:    9.4907701142
  - # 11
    frequency:    9.4907701142
  - # 12
    frequency:   10.9773871308

- q-position: [    0.0000000,    0.0000000,    0.0500000 ]
  distance:    0.0081687
  band:
  - # 1
    frequency:    0.1884582905
  - # 2
    frequency:    0.1884582905
  - # 3
    frequency:    0.5539251103
  - # 4
    frequency:    1.7699400943
  - # 5
    frequency:    1.7699400943
  - # 6
    frequency:    6.0786048868
  - # 7
    frequency:    9.1867453856
  - # 8
    frequency:    9.2204083460
  - # 9
    frequency:    9.2204083460
  - # 10
    frequency:    9.4899704500
  - # 11
    frequency:    9.4899704500
  - # 12
    frequency:   10.9813746474

- q-position: [    0.0000000,    0.0000000,    0.0600000 ]
  distance:    0.0098024
  band:
  - # 1
    frequency:    0.2259042492
  - # 2
    frequency:    0.2259042492
  - # 3
    frequency:    0.6639693059
  - # 4
    frequency:    1.7694532952
  - # 5
    frequency:    1.7694532952
  - # 6
    frequency:    6.0695581217
  - # 7
    frequency:    9.2008719530
  - # 8
    frequency:    9.2208843814
  - # 9
    frequency:    9.2208843814
  - # 10
    frequency:    9.4889957245
  - # 11
    frequency:    9.4889957245
  - # 12
    frequency:   10.9861715092

- q-position: [    0.0000000,    0.0000000,    0.0700000 ]
  distance:    0.0114362
  band:
  - # 1
    frequency:    0.2632166814
  - # 2
    frequency:    0.2632166814
  - # 3
    frequency:    0.7736128531
  - # 4
    frequency:    1.7688663672
  - # 5
    frequency:    1.7688663672
  - # 6
    frequency:    6.0589271140
  - # 7
    frequency:    9.2174564423
  - # 8
    frequency:    9.2214478009
  - # 9
    frequency:    9.2214478009
  - # 10
    frequency:    9.4878475144
  - # 11
    frequency:    9.4878475144
  - # 12
    frequency:   10.9917328958

- q-position: [    0.0000000,    0.0000000,    0.0800000 ]
  distance:    0.0130699
  band:
  - # 1
    frequency:    0.3003737416
  - # 2
    frequency:    0.3003737416
  - # 3
    frequency:    0.8827918080
  - # 4
    frequency:    1.7681735778
  - # 5
    frequency:    1.7681735778
  - # 6
    frequency:    6.0467404644
  - # 7
    frequency:    9.2220990051
  - # 8
    frequency:    9.2220990051
  - # 9
    frequency:    9.2364446952
  - # 10
    frequency:    9.4865276757
  - # 11
    frequency:    9.4865276757
  - # 12
    frequency:   10.9980069264

- q-position: [    0.0000000,    0.0000000,    0.0900000 ]
  distance:    0.0147037
  band:
  - # 1
    frequency:    0.3373537729
  - # 2
    frequency:    0.3373537729
  - # 3
    frequency:    0.9914434960
  - # 4
    frequency:    1.7673683715
  - # 5
    frequency:    1.7673683715
  - # 6
    frequency:    6.0330299254
  - # 7
    frequency:    9.2228384447
  - # 8
    frequency:    9.2228384447
  - # 9
    frequency:    9.2577750595
  - # 10
    frequency:    9.4850383394
  - # 11
    frequency:    9.4850383394
  - # 12
    frequency:   11.0049351604

- q-position: [    0.0000000,    0.0000000,    0.1000000 ]
  distance:    0.0163374
  band:
  - # 1
    frequency:    0.3741353335
  - # 2
    frequency:    0.3741353335
  - # 3
    frequency:    1.0995066680
  - # 4
    frequency:    1.7664433943
  - # 5
    frequency:    1.7664433943
  - # 6
    frequency:    6.0178299295
  - # 7
    frequency:    9.2236666151
  - # 8
    frequency:    9.2236666151
  - # 9
    frequency:    9.2813787293
  - # 10
    frequency:    9.4833819078
  - # 11
    frequency:    9.4833819078
  - # 12
    frequency:   11.0124531439

- q-position: [    0.0000000,    0.0000000,    0.1100000 ]
  distance:    0.0179711
  band:
  - # 1
    frequency:    0.4106972234
  - # 2
    frequency:    0.4106972234
  - # 3
    frequency:    1.2069216472
  - # 4
    frequency:    1.7653905210
  - # 5
    frequency:    1.7653905210
  - # 6
    frequency:    6.0011770930
  - # 7
    frequency:    9.2245840515
  - # 8
    frequency:    9.2245840515
  - # 9
    frequency:    9.3071801192
  - # 10
    frequency:    9.4815610488
  - # 11
    frequency:    9.4815610488
  - # 12
    frequency:   11.0204909925

- q-position: [    0.0000000,    0.0000000,    0.1200000 ]
  distance:    0.0196049
  band:
  - # 1
    frequency:    0.4470185107
  - # 2
    frequency:    0.4470185107
  - # 3
    frequency:    1.3136304654
  - # 4
    frequency:    1.7642008854
  - # 5
    frequency:    1.7642008854
  - # 6
    frequency:    5.9831097049
  - # 7
    frequency:    9.2255913221
  - # 8
    frequency:    9.2255913221
  - # 9
    frequency:    9.3350972684
  - # 10
    frequency:    9.4795786911
  - # 11
    frequency:    9.4795786911
  - # 12
    frequency:   11.0289739982

- q-position: [    0.0000000,    0.0000000,    0.1300000 ]
  distance:    0.0212386
  band:
  - # 1
    frequency:    0.4830785582
  - # 2
    frequency:    0.4830785582
  - # 3
    frequency:    1.4195769893
  - # 4
    frequency:    1.7628649128
  - # 5
    frequency:    1.7628649128
  - # 6
    frequency:    5.9636672119
  - # 7
    frequency:    9.2266890219
  - # 8
    frequency:    9.2266890219
  - # 9
    frequency:    9.3650422701
  - # 10
    frequency:    9.4774380177
  - # 11
    frequency:    9.4774380177
  - # 12
    frequency:   11.0378232525

- q-position: [    0.0000000,    0.0000000,    0.1400000 ]
  distance:    0.0228724
  band:
  - # 1
    frequency:    0.5188570490
  - # 2
    frequency:    0.5188570490
  - # 3
    frequency:    1.5247070360
  - # 4
    frequency:    1.7613723547
  - # 5
    frequency:    1.7613723547
  - # 6
    frequency:    5.9428897086
  - # 7
    frequency:    9.2278777653
  - # 8
    frequency:    9.2278777653
  - # 9
    frequency:    9.3969217229
  - # 10
    frequency:    9.4751424594
  - # 11
    frequency:    9.4751424594
  - # 12
    frequency:   11.0469562746

- q-position: [    0.0000000,    0.0000000,    0.1500000 ]
  distance:    0.0245061
  band:
  - # 1
    frequency:    0.5543340131
  - # 2
    frequency:    0.5543340131
  - # 3
    frequency:    1.6289684772
  - # 4
    frequency:    1.7597123258
  - # 5
    frequency:    1.7597123258
  - # 6
    frequency:    5.9208174420
  - # 7
    frequency:    9.2291581787
  - # 8
    frequency:    9.2291581787
  - # 9
    frequency:    9.4306371995
  - # 10
    frequency:    9.4726956874
  - # 11
    frequency:    9.4726956874
  - # 12
    frequency:   11.0562876361

- q-position: [    0.0000000,    0.0000000,    0.1600000 ]
  distance:    0.0261399
  band:
  - # 1
    frequency:    0.5894898525
  - # 2
    frequency:    0.5894898525
  - # 3
    frequency:    1.7323113320
  - # 4
    frequency:    1.7578733433
  - # 5
    frequency:    1.7578733433
  - # 6
    frequency:    5.8974903372
  - # 7
    frequency:    9.2305308919
  - # 8
    frequency:    9.2305308919
  - # 9
    frequency:    9.4660857287
  - # 10
    frequency:    9.4701016061
  - # 11
    frequency:    9.4701016061
  - # 12
    frequency:   11.0657295767

- q-position: [    0.0000000,    0.0000000,    0.1700000 ]
  distance:    0.0277736
  band:
  - # 1
    frequency:    0.6243053673
  - # 2
    frequency:    0.6243053673
  - # 3
    frequency:    1.7558433669
  - # 4
    frequency:    1.7558433669
  - # 5
    frequency:    1.8346878494
  - # 6
    frequency:    5.8729475519
  - # 7
    frequency:    9.2319965302
  - # 8
    frequency:    9.2319965302
  - # 9
    frequency:    9.4673643441
  - # 10
    frequency:    9.4673643441
  - # 11
    frequency:    9.5031602868
  - # 12
    frequency:   11.0751926018

- q-position: [    0.0000000,    0.0000000,    0.1800000 ]
  distance:    0.0294073
  band:
  - # 1
    frequency:    0.6587617802
  - # 2
    frequency:    0.6587617802
  - # 3
    frequency:    1.7536098417
  - # 4
    frequency:    1.7536098417
  - # 5
    frequency:    1.9360525789
  - # 6
    frequency:    5.8472270628
  - # 7
    frequency:    9.2335557049
  - # 8
    frequency:    9.2335557049
  - # 9
    frequency:    9.4644882459
  - # 10
    frequency:    9.4644882459
  - # 11
    frequency:    9.5417502939
  - # 12
    frequency:   11.0845860583

- q-position: [    0.0000000,    0.0000000,    0.1900000 ]
  distance:    0.0310411
  band:
  - # 1
    frequency:    0.6928407621
  - # 2
    frequency:    0.6928407621
  - # 3
    frequency:    1.7511597414
  - # 4
    frequency:    1.7511597414
  - # 5
    frequency:    2.0363624312
  - # 6
    frequency:    5.8203652906
  - # 7
    frequency:    9.2352090045
  - # 8
    frequency:    9.2352090045
  - # 9
    frequency:    9.4614778626
  - # 10
    frequency:    9.4614778626
  - # 11
    frequency:    9.5817421129
  - # 12
    frequency:   11.0938186853

- q-position: [    0.0000000,    0.0000000,    0.2000000 ]
  distance:    0.0326748
  band:
  - # 1
    frequency:    0.7265244558
  - # 2
    frequency:    0.7265244558
  - # 3
    frequency:    1.7484796131
  - # 4
    frequency:    1.7484796131
  - # 5
    frequency:    2.1355767277
  - # 6
    frequency:    5.7923967644
  - # 7
    frequency:    9.2369569848
  - # 8
    frequency:    9.2369569848
  - # 9
    frequency:    9.4583379415
  - # 10
    frequency:    9.4583379415
  - # 11
    frequency:    9.6230195454
  - # 12
    frequency:   11.1027991338

- q-position: [    0.0000000,    0.0000000,    0.2100000 ]
  distance:    0.0343086
  band:
  - # 1
    frequency:    0.7597955008
  - # 2
    frequency:    0.7597955008
  - # 3
    frequency:    1.7455556231
  - # 4
    frequency:    1.7455556231
  - # 5
    frequency:    2.2336572412
  - # 6
    frequency:    5.7633538278
  - # 7
    frequency:    9.2388001593
  - # 8
    frequency:    9.2388001593
  - # 9
    frequency:    9.4550734166
  - # 10
    frequency:    9.4550734166
  - # 11
    frequency:    9.6654643240
  - # 12
    frequency:   11.1114364569

- q-position: [    0.0000000,    0.0000000,    0.2200000 ]
  distance:    0.0359423
  band:
  - # 1
    frequency:    0.7926370567
  - # 2
    frequency:    0.7926370567
  - # 3
    frequency:    1.7423736033
  - # 4
    frequency:    1.7423736033
  - # 5
    frequency:    2.3305682263
  - # 6
    frequency:    5.7332663881
  - # 7
    frequency:    9.2407389894
  - # 8
    frequency:    9.2407389894
  - # 9
    frequency:    9.4516893971
  - # 10
    frequency:    9.4516893971
  - # 11
    frequency:    9.7089565958
  - # 12
    frequency:   11.1196405667

- q-position: [    0.0000000,    0.0000000,    0.2300000 ]
  distance:    0.0375760
  band:
  - # 1
    frequency:    0.8250328262
  - # 2
    frequency:    0.8250328262
  - # 3
    frequency:    1.7389190981
  - # 4
    frequency:    1.7389190981
  - # 5
    frequency:    2.4262764413
  - # 6
    frequency:    5.7021617082
  - # 7
    frequency:    9.2427738738
  - # 8
    frequency:    9.2427738738
  - # 9
    frequency:    9.4481911567
  - # 10
    frequency:    9.4481911567
  - # 11
    frequency:    9.7533753959
  - # 12
    frequency:   11.1273226584

- q-position: [    0.0000000,    0.0000000,    0.2400000 ]
  distance:    0.0392098
  band:
  - # 1
    frequency:    0.8569670779
  - # 2
    frequency:    0.8569670779
  - # 3
    frequency:    1.7351774123
  - # 4
    frequency:    1.7351774123
  - # 5
    frequency:    2.5207511617
  - # 6
    frequency:    5.6700642406
  - # 7
    frequency:    9.2449051386
  - # 8
    frequency:    9.2449051386
  - # 9
    frequency:    9.4445841217
  - # 10
    frequency:    9.4445841217
  - # 11
    frequency:    9.7985991079
  - # 12
    frequency:   11.1343956025

- q-position: [    0.0000000,    0.0000000,    0.2500000 ]
  distance:    0.0408435
  band:
  - # 1
    frequency:    0.8884246685
  - # 2
    frequency:    0.8884246685
  - # 3
    frequency:    1.7311336582
  - # 4
    frequency:    1.7311336582
  - # 5
    frequency:    2.6139641860
  - # 6
    frequency:    5.6369955016
  - # 7
    frequency:    9.2471330271
  - # 8
    frequency:    9.2471330271
  - # 9
    frequency:    9.4408738588
  - # 10
    frequency:    9.4408738588
  - # 11
    frequency:    9.8445059098
  - # 12
    frequency:   11.1407743053

- q-position: [    0.0000000,    0.0000000,    0.2600000 ]
  distance:    0.0424773
  band:
  - # 1
    frequency:    0.9193910641
  - # 2
    frequency:    0.9193910641
  - # 3
    frequency:    1.7267728038
  - # 4
    frequency:    1.7267728038
  - # 5
    frequency:    2.7058898339
  - # 6
    frequency:    5.6029739848
  - # 7
    frequency:    9.2494576892
  - # 8
    frequency:    9.2494576892
  - # 9
    frequency:    9.4370660631
  - # 10
    frequency:    9.4370660631
  - # 11
    frequency:    9.8909742037
  - # 12
    frequency:   11.1463760375

- q-position: [    0.0000000,    0.0000000,    0.2700000 ]
  distance:    0.0441110
  band:
  - # 1
    frequency:    0.9498523605
  - # 2
    frequency:    0.9498523605
  - # 3
    frequency:    1.7220797206
  - # 4
    frequency:    1.7220797206
  - # 5
    frequency:    2.7965049383
  - # 6
    frequency:    5.5680151116
  - # 7
    frequency:    9.2518791715
  - # 8
    frequency:    9.2518791715
  - # 9
    frequency:    9.4331665447
  - # 10
    frequency:    9.4331665447
  - # 11
    frequency:    9.9378830271
  - # 12
    frequency:   11.1511207362

- q-position: [    0.0000000,    0.0000000,    0.2800000 ]
  distance:    0.0457447
  band:
  - # 1
    frequency:    0.9797953041
  - # 2
    frequency:    0.9797953041
  - # 3
    frequency:    1.7170392303
  - # 4
    frequency:    1.7170392303
  - # 5
    frequency:    2.8857888307
  - # 6
    frequency:    5.5321312158
  - # 7
    frequency:    9.2543974073
  - # 8
    frequency:    9.2543974073
  - # 9
    frequency:    9.4291812163
  - # 10
    frequency:    9.4291812163
  - # 11
    frequency:    9.9851124459
  - # 12
    frequency:   11.1549312769

- q-position: [    0.0000000,    0.0000000,    0.2900000 ]
  distance:    0.0473785
  band:
  - # 1
    frequency:    1.0092073099
  - # 2
    frequency:    1.0092073099
  - # 3
    frequency:    1.7116361528
  - # 4
    frequency:    1.7116361528
  - # 5
    frequency:    2.9737233209
  - # 6
    frequency:    5.4953315593
  - # 7
    frequency:    9.2570122063
  - # 8
    frequency:    9.2570122063
  - # 9
    frequency:    9.4251160794
  - # 10
    frequency:    9.4251160794
  - # 11
    frequency:   10.0325439275
  - # 12
    frequency:   11.1577337222

- q-position: [    0.0000000,    0.0000000,    0.3000000 ]
  distance:    0.0490122
  band:
  - # 1
    frequency:    1.0380764810
  - # 2
    frequency:    1.0380764810
  - # 3
    frequency:    1.7058553520
  - # 4
    frequency:    1.7058553520
  - # 5
    frequency:    3.0602926713
  - # 6
    frequency:    5.4576223777
  - # 7
    frequency:    9.2597232455
  - # 8
    frequency:    9.2597232455
  - # 9
    frequency:    9.4209772106
  - # 10
    frequency:    9.4209772106
  - # 11
    frequency:   10.0800606938
  - # 12
    frequency:   11.1594575453

- q-position: [    0.0000000,    0.0000000,    0.3100000 ]
  distance:    0.0506460
  band:
  - # 1
    frequency:    1.0663916250
  - # 2
    frequency:    1.0663916250
  - # 3
    frequency:    1.6996817820
  - # 4
    frequency:    1.6996817820
  - # 5
    frequency:    3.1454835661
  - # 6
    frequency:    5.4190069516
  - # 7
    frequency:    9.2625300594
  - # 8
    frequency:    9.2625300594
  - # 9
    frequency:    9.4167707482
  - # 10
    frequency:    9.4167707482
  - # 11
    frequency:   10.1275480529
  - # 12
    frequency:   11.1600358325

- q-position: [    0.0000000,    0.0000000,    0.3200000 ]
  distance:    0.0522797
  band:
  - # 1
    frequency:    1.0941422709
  - # 2
    frequency:    1.0941422709
  - # 3
    frequency:    1.6931005323
  - # 4
    frequency:    1.6931005323
  - # 5
    frequency:    3.2292850754
  - # 6
    frequency:    5.3794857013
  - # 7
    frequency:    9.2654320314
  - # 8
    frequency:    9.2654320314
  - # 9
    frequency:    9.4125028777
  - # 10
    frequency:    9.4125028777
  - # 11
    frequency:   10.1748937114
  - # 12
    frequency:   11.1594054655

- q-position: [    0.0000000,    0.0000000,    0.3300000 ]
  distance:    0.0539134
  band:
  - # 1
    frequency:    1.1213186842
  - # 2
    frequency:    1.1213186842
  - # 3
    frequency:    1.6860968718
  - # 4
    frequency:    1.6860968718
  - # 5
    frequency:    3.3116886154
  - # 6
    frequency:    5.3390563019
  - # 7
    frequency:    9.2684283848
  - # 8
    frequency:    9.2684283848
  - # 9
    frequency:    9.4081798181
  - # 10
    frequency:    9.4081798181
  - # 11
    frequency:   10.2219880648
  - # 12
    frequency:   11.1575072857

- q-position: [    0.0000000,    0.0000000,    0.3400000 ]
  distance:    0.0555472
  band:
  - # 1
    frequency:    1.1479118815
  - # 2
    frequency:    1.1479118815
  - # 3
    frequency:    1.6786562927
  - # 4
    frequency:    1.6786562927
  - # 5
    frequency:    3.3926879031
  - # 6
    frequency:    5.2977138167
  - # 7
    frequency:    9.2715181751
  - # 8
    frequency:    9.2715181751
  - # 9
    frequency:    9.4038078077
  - # 10
    frequency:    9.4038078077
  - # 11
    frequency:   10.2687244677
  - # 12
    frequency:   11.1542862415

- q-position: [    0.0000000,    0.0000000,    0.3500000 ]
  distance:    0.0571809
  band:
  - # 1
    frequency:    1.1739136431
  - # 2
    frequency:    1.1739136431
  - # 3
    frequency:    1.6707645518
  - # 4
    frequency:    1.6707645518
  - # 5
    frequency:    3.4722789074
  - # 6
    frequency:    5.2554508461
  - # 7
    frequency:    9.2747002821
  - # 8
    frequency:    9.2747002821
  - # 9
    frequency:    9.3993930895
  - # 10
    frequency:    9.3993930895
  - # 11
    frequency:   10.3149994847
  - # 12
    frequency:   11.1496915214

- q-position: [    0.0000000,    0.0000000,    0.3600000 ]
  distance:    0.0588147
  band:
  - # 1
    frequency:    1.1993165252
  - # 2
    frequency:    1.1993165252
  - # 3
    frequency:    1.6624077126
  - # 4
    frequency:    1.6624077126
  - # 5
    frequency:    3.5504597954
  - # 6
    frequency:    5.2122576886
  - # 7
    frequency:    9.2779734032
  - # 8
    frequency:    9.2779734032
  - # 9
    frequency:    9.3949418976
  - # 10
    frequency:    9.3949418976
  - # 11
    frequency:   10.3607131209
  - # 12
    frequency:   11.1436766725

- q-position: [    0.0000000,    0.0000000,    0.3700000 ]
  distance:    0.0604484
  band:
  - # 1
    frequency:    1.2241138703
  - # 2
    frequency:    1.2241138703
  - # 3
    frequency:    1.6535721844
  - # 4
    frequency:    1.6535721844
  - # 5
    frequency:    3.6272308743
  - # 6
    frequency:    5.1681225131
  - # 7
    frequency:    9.2813360464
  - # 8
    frequency:    9.2813360464
  - # 9
    frequency:    9.3904604425
  - # 10
    frequency:    9.3904604425
  - # 11
    frequency:   10.4057690338
  - # 12
    frequency:   11.1361997078

- q-position: [    0.0000000,    0.0000000,    0.3800000 ]
  distance:    0.0620821
  band:
  - # 1
    frequency:    1.2482998166
  - # 2
    frequency:    1.2482998166
  - # 3
    frequency:    1.6442447615
  - # 4
    frequency:    1.6442447615
  - # 5
    frequency:    3.7025945286
  - # 6
    frequency:    5.1230315398
  - # 7
    frequency:    9.2847865252
  - # 8
    frequency:    9.2847865252
  - # 9
    frequency:    9.3859548977
  - # 10
    frequency:    9.3859548977
  - # 11
    frequency:   10.4500747264
  - # 12
    frequency:   11.1272232012

- q-position: [    0.0000000,    0.0000000,    0.3900000 ]
  distance:    0.0637159
  band:
  - # 1
    frequency:    1.2718693057
  - # 2
    frequency:    1.2718693057
  - # 3
    frequency:    1.6344126598
  - # 4
    frequency:    1.6344126598
  - # 5
    frequency:    3.7765551528
  - # 6
    frequency:    5.0769692268
  - # 7
    frequency:    9.2883229532
  - # 8
    frequency:    9.2883229532
  - # 9
    frequency:    9.3814313855
  - # 10
    frequency:    9.3814313855
  - # 11
    frequency:   10.4935417234
  - # 12
    frequency:   11.1167143733

- q-position: [    0.0000000,    0.0000000,    0.4000000 ]
  distance:    0.0653496
  band:
  - # 1
    frequency:    1.2948180889
  - # 2
    frequency:    1.2948180889
  - # 3
    frequency:    1.6240635531
  - # 4
    frequency:    1.6240635531
  - # 5
    frequency:    3.8491190794
  - # 6
    frequency:    5.0299184615
  - # 7
    frequency:    9.2919432400
  - # 8
    frequency:    9.2919432400
  - # 9
    frequency:    9.3768959637
  - # 10
    frequency:    9.3768959637
  - # 11
    frequency:   10.5360857302
  - # 12
    frequency:   11.1046451673

- q-position: [    0.0000000,    0.0000000,    0.4100000 ]
  distance:    0.0669834
  band:
  - # 1
    frequency:    1.3171427324
  - # 2
    frequency:    1.3171427324
  - # 3
    frequency:    1.6131856070
  - # 4
    frequency:    1.6131856070
  - # 5
    frequency:    3.9202945009
  - # 6
    frequency:    4.9818607554
  - # 7
    frequency:    9.2956450872
  - # 8
    frequency:    9.2956450872
  - # 9
    frequency:    9.3723546120
  - # 10
    frequency:    9.3723546120
  - # 11
    frequency:   10.5776267758
  - # 12
    frequency:   11.0909923167

- q-position: [    0.0000000,    0.0000000,    0.4200000 ]
  distance:    0.0686171
  band:
  - # 1
    frequency:    1.3388406206
  - # 2
    frequency:    1.3388406206
  - # 3
    frequency:    1.6017675120
  - # 4
    frequency:    1.6017675120
  - # 5
    frequency:    3.9900913878
  - # 6
    frequency:    4.9327764393
  - # 7
    frequency:    9.2994259862
  - # 8
    frequency:    9.2994259862
  - # 9
    frequency:    9.3678132195
  - # 10
    frequency:    9.3678132195
  - # 11
    frequency:   10.6180893405
  - # 12
    frequency:   11.0757374044

- q-position: [    0.0000000,    0.0000000,    0.4300000 ]
  distance:    0.0702509
  band:
  - # 1
    frequency:    1.3599099578
  - # 2
    frequency:    1.3599099578
  - # 3
    frequency:    1.5897985142
  - # 4
    frequency:    1.5897985142
  - # 5
    frequency:    4.0585213998
  - # 6
    frequency:    4.8826448590
  - # 7
    frequency:    9.3032832161
  - # 8
    frequency:    9.3032832161
  - # 9
    frequency:    9.3632775720
  - # 10
    frequency:    9.3632775720
  - # 11
    frequency:   10.6574024697
  - # 12
    frequency:   11.0588669153

- q-position: [    0.0000000,    0.0000000,    0.4400000 ]
  distance:    0.0718846
  band:
  - # 1
    frequency:    1.3803497683
  - # 2
    frequency:    1.3803497683
  - # 3
    frequency:    1.5772684453
  - # 4
    frequency:    1.5772684453
  - # 5
    frequency:    4.1255977922
  - # 6
    frequency:    4.8314445692
  - # 7
    frequency:    9.3072138426
  - # 8
    frequency:    9.3072138426
  - # 9
    frequency:    9.3587533398
  - # 10
    frequency:    9.3587533398
  - # 11
    frequency:   10.6954998733
  - # 12
    frequency:   11.0403722807

- q-position: [    0.0000000,    0.0000000,    0.4500000 ]
  distance:    0.0735183
  band:
  - # 1
    frequency:    1.4001598951
  - # 2
    frequency:    1.4001598951
  - # 3
    frequency:    1.5641677503
  - # 4
    frequency:    1.5641677503
  - # 5
    frequency:    4.1913353150
  - # 6
    frequency:    4.7791535257
  - # 7
    frequency:    9.3112147180
  - # 8
    frequency:    9.3112147180
  - # 9
    frequency:    9.3542460661
  - # 10
    frequency:    9.3542460661
  - # 11
    frequency:   10.7323200130
  - # 12
    frequency:   11.0202499169

- q-position: [    0.0000000,    0.0000000,    0.4600000 ]
  distance:    0.0751521
  band:
  - # 1
    frequency:    1.4193409966
  - # 2
    frequency:    1.4193409966
  - # 3
    frequency:    1.5504875135
  - # 4
    frequency:    1.5504875135
  - # 5
    frequency:    4.2557501072
  - # 6
    frequency:    4.7257492729
  - # 7
    frequency:    9.3152824816
  - # 8
    frequency:    9.3152824816
  - # 9
    frequency:    9.3497611566
  - # 10
    frequency:    9.3497611566
  - # 11
    frequency:   10.7678061774
  - # 12
    frequency:   10.9985012567

- q-position: [    0.0000000,    0.0000000,    0.4700000 ]
  distance:    0.0767858
  band:
  - # 1
    frequency:    1.4378945419
  - # 2
    frequency:    1.4378945419
  - # 3
    frequency:    1.5362194832
  - # 4
    frequency:    1.5362194832
  - # 5
    frequency:    4.3188595832
  - # 6
    frequency:    4.6712091284
  - # 7
    frequency:    9.3194135616
  - # 8
    frequency:    9.3194135616
  - # 9
    frequency:    9.3453038681
  - # 10
    frequency:    9.3453038681
  - # 11
    frequency:   10.8019065461
  - # 12
    frequency:   10.9751327737

- q-position: [    0.0000000,    0.0000000,    0.4800000 ]
  distance:    0.0784196
  band:
  - # 1
    frequency:    1.4558228039
  - # 2
    frequency:    1.4558228039
  - # 3
    frequency:    1.5213560943
  - # 4
    frequency:    1.5213560943
  - # 5
    frequency:    4.3806823136
  - # 6
    frequency:    4.6155103615
  - # 7
    frequency:    9.3236041775
  - # 8
    frequency:    9.3236041775
  - # 9
    frequency:    9.3408792995
  - # 10
    frequency:    9.3408792995
  - # 11
    frequency:   10.8345742427
  - # 12
    frequency:   10.9501560016

- q-position: [    0.0000000,    0.0000000,    0.4900000 ]
  distance:    0.0800533
  band:
  - # 1
    frequency:    1.4731288510
  - # 2
    frequency:    1.4731288510
  - # 3
    frequency:    1.5058904891
  - # 4
    frequency:    1.5058904891
  - # 5
    frequency:    4.4412378980
  - # 6
    frequency:    4.5586303669
  - # 7
    frequency:    9.3278503436
  - # 8
    frequency:    9.3278503436
  - # 9
    frequency:    9.3364923824
  - # 10
    frequency:    9.3364923824
  - # 11
    frequency:   10.8657673782
  - # 12
    frequency:   10.9235875452

- q-position: [    0.0000000,    0.0000000,    0.5000000 ]
  distance:    0.0816870
  band:
  - # 1
    frequency:    1.4898165370
  - # 2
    frequency:    1.4898165370
  - # 3
    frequency:    1.4898165370
  - # 4
    frequency:    1.4898165370
  - # 5
    frequency:    4.5005468321
  - # 6
    frequency:    4.5005468321
  - # 7
    frequency:    9.3321478728
  - # 8
    frequency:    9.3321478728
  - # 9
    frequency:    9.3321478728
  - # 10
    frequency:    9.3321478728
  - # 11
    frequency:   10.8954490856
  - # 12
    frequency:   10.8954490856

- q-position: [    0.0000000,    0.0000000,    0.5000000 ]
  distance:    0.0816870
  band:
  - # 1
    frequency:    1.4898165370
  - # 2
    frequency:    1.4898165370