72   
4    

1    
  0.0033749968256213  -0.0058456659773597   0.0073781830899067
  -0.0276748800    0.0489663000   -0.0633530900
   0.0014359200   -0.0029586100   -0.0009074700
   0.0002441500   -0.0057539700   -0.0025966500
  -0.0008551300   -0.0017711600   -0.0010111700
   0.0001311300    0.0027738400   -0.0024765200
   0.0004373200   -0.0007476000   -0.0007844200
  -0.0020356100   -0.0013870700   -0.0001691100
   0.0004395400   -0.0007476900   -0.0007834800
   0.0040751000    0.0039878600   -0.0033191200
   0.0000730400   -0.0001192300    0.0020815900
   0.0003240800   -0.0001456900    0.0001512000
   0.0001575300    0.0006685600    0.0008752900
  -0.0001789900    0.0004947900    0.0004296100
   0.0004598300   -0.0002623200    0.0005976300
   0.0000386800   -0.0000588700    0.0003669500
  -0.0003445300   -0.0000587500    0.0000661600
   0.0000396900   -0.0000574700    0.0003698100
  -0.0005561600   -0.0003926100    0.0009588000
   0.0000709200   -0.0045718300    0.0031750900
  -0.0000814000   -0.0008528800    0.0003396400
  -0.0054078700    0.0030242800    0.0004660800
   0.0047306800    0.0025554800    0.0018163400
   0.0006066300    0.0000363500    0.0003354600
  -0.0003393600    0.0001595100    0.0001329800
   0.0004222200   -0.0006518200    0.0003544700
   0.0003473600    0.0002850600    0.0003219400
  -0.0006316700    0.0004169000    0.0002346100
   0.0000766200    0.0025008400   -0.0024507000
   0.0003628900   -0.0005983700    0.0003411000
   0.0007043700   -0.0005009600    0.0060677100
  -0.0013839800   -0.0009820800    0.0018099000
   0.0002068400    0.0002668100   -0.0000310500
  -0.0003426500   -0.0003021900    0.0004972800
  -0.0000189600   -0.0003974500   -0.0000476100
   0.0003460900   -0.0002251500    0.0007272000
  -0.0002337500    0.0006477400    0.0002332100
   0.0007794100   -0.0013129100    0.0427945300
  -0.0005440700    0.0010951000   -0.0001710200
   0.0005023800    0.0000200300    0.0010380800
  -0.0003952000   -0.0004595600    0.0004390100
  -0.0008803500   -0.0004023600    0.0004133800
  -0.0000441800    0.0000883500    0.0002083000
   0.0006038200    0.0009108100   -0.0001831600
  -0.0001166700    0.0002325800    0.0002258900
   0.0003887300   -0.0005915300    0.0010311500
   0.0003473700   -0.0005917200   -0.0012670100
  -0.0004982500    0.0001889200    0.0004333500
  -0.0000600100    0.0004713800   -0.0012221500
   0.0002344500   -0.0000535200   -0.0001857300
  -0.0000438700   -0.0000661700   -0.0006116600
  -0.0000244700    0.0000474100   -0.0002370600
   0.0006055900    0.0000672100    0.0006401900
  -0.0001290700    0.0002350300   -0.0003098500
  -0.0003757100   -0.0003251400   -0.0014386100
  -0.0000481700    0.0004095300   -0.0011954600
  -0.0001294300    0.0001950200   -0.0002253200
   0.0010658700   -0.0005768000   -0.0018384800
  -0.0007442700   -0.0003389900   -0.0015215800
  -0.0002206100   -0.0000345300   -0.0001834100
   0.0001414100   -0.0000739500   -0.0001779300
  -0.0000172000    0.0001430200   -0.0001554300
  -0.0001217000    0.0000945200   -0.0002666100
   0.0002474800   -0.0001861100   -0.0001789200
   0.0003873200   -0.0160982200   -0.0043819900
  -0.0006864700    0.0016860000    0.0002715700
   0.0358829300   -0.0212829200    0.0159650300
  -0.0110468900   -0.0074252000    0.0059889100
  -0.0004090000   -0.0001287000    0.0003317800
   0.0003198600    0.0010647500    0.0002833400
   0.0003075300    0.0008746200    0.0001196600
  -0.0009193700   -0.0003484000    0.0004350100
  -0.0000048900   -0.0007680800    0.0003125400

1    
 -0.0033749968256213   0.0058456659773597  -0.0073781830899067
   0.0294246800   -0.0498521600    0.0620491200
  -0.0014314900    0.0029567200    0.0008855700
  -0.0002605000    0.0057826400    0.0025746500
   0.0008617700    0.0017853800    0.0009986100
  -0.0001241000   -0.0027584400    0.0024603100
  -0.0004371900    0.0007687100    0.0007722900
   0.0020418900    0.0014047600    0.0001546600
  -0.0004353700    0.0007659400    0.0007701600
  -0.0040774000   -0.0039725000    0.0033099700
  -0.0000717800    0.0001368900   -0.0021063500
  -0.0003241300    0.0001655400   -0.0001631800
  -0.0001549600   -0.0006506000   -0.0008872000
   0.0001798600   -0.0004768800   -0.0004398300
  -0.0004611500    0.0002802600   -0.0006076200
  -0.0000393800    0.0000755200   -0.0003813500
   0.0003499000    0.0000766400   -0.0000818600
  -0.0000392700    0.0000774800   -0.0003813700
   0.0005595900    0.0004111600   -0.0009670000
  -0.0000743300    0.0045553400   -0.0031468800
   0.0000779000    0.0008311700   -0.0003505400
   0.0054009200   -0.0030429600   -0.0004802800
  -0.0047345000   -0.0025716600   -0.0018158300
  -0.0006051700   -0.0000548900   -0.0003446000
   0.0003447300   -0.0001790400   -0.0001455200
  -0.0004206200    0.0006303200   -0.0003676600
  -0.0003442800   -0.0003004900   -0.0003369000
   0.0006330700   -0.0004350000   -0.0002463000
  -0.0000682500   -0.0025239900    0.0024407800
  -0.0003612200    0.0005782400   -0.0003468300
  -0.0007440100    0.0005036200   -0.0060928400
   0.0014080100    0.0009674500   -0.0018214300
  -0.0002077300   -0.0002836900    0.0000196100
   0.0003434700    0.0002816200   -0.0005124500
   0.0000195000    0.0003748200    0.0000366300
  -0.0003450800    0.0002060700   -0.0007368200
   0.0002331300   -0.0006641900   -0.0002438600
  -0.0008638000    0.0015178900   -0.0412831400
   0.0005394400   -0.0010811500    0.0002075800
  -0.0005067600    0.0000030900   -0.0010338600
   0.0003845000    0.0004661100   -0.0004232600
   0.0008770500    0.0004200600   -0.0004027700
   0.0000488300   -0.0000701000   -0.0001968100
  -0.0006036300   -0.0008779000    0.0001861600
   0.0001333500   -0.0002213900   -0.0002028900
  -0.0003933800    0.0005996500   -0.0010103700
  -0.0003546000    0.0005977900    0.0012663400
   0.0004931200   -0.0001717400   -0.0004143500
   0.0000643600   -0.0004551200    0.0012362600
  -0.0002365300    0.0000783500    0.0002016200
   0.0000484000    0.0000751200    0.0006138500
   0.0000259300   -0.0000337200    0.0002549900
  -0.0006003400   -0.0000490800   -0.0006206600
   0.0001282700   -0.0002163700    0.0003182900
   0.0003797100    0.0003364100    0.0014505000
   0.0000427500   -0.0004205500    0.0012271600
   0.0001242300   -0.0002143400    0.0002372700
  -0.0010533700    0.0005514000    0.0018719100
   0.0007440300    0.0003140100    0.0015532100
   0.0002221200    0.0000297400    0.0002020800
  -0.0001404400    0.0000575000    0.0001923500
   0.0000204700   -0.0001552600    0.0001874500
   0.0001142500   -0.0001105500    0.0002903300
  -0.0002417100    0.0001701400    0.0001947500
  -0.0004573900    0.0161577200    0.0042828800
   0.0007026500   -0.0017162400   -0.0002562500
  -0.0374772800    0.0220556900   -0.0163802800
   0.0110137000    0.0072803500   -0.0058389100
   0.0004357000    0.0001231000   -0.0003139800
  -0.0003305600   -0.0010792400   -0.0002626600
  -0.0003126500   -0.0008723500   -0.0001022200
   0.0009026300    0.0003248700   -0.0004123100
   0.0000104600    0.0007363200   -0.0002881200

37   
  0.0033749968256213  -0.0058456659773597   0.0073781830899067
   0.0008790500   -0.0015273700    0.0412838000
   0.0003278700   -0.0000331000    0.0010967300
  -0.0001550600    0.0012525500   -0.0002527500
   0.0002178600    0.0007599900   -0.0001230300
   0.0005958600   -0.0005565300    0.0009618900
  -0.0001299800    0.0002334100    0.0002130800
  -0.0002030100   -0.0001958800    0.0005496200
  -0.0000431200    0.0000883600    0.0001997300
  -0.0010698800   -0.0006667600    0.0002845800
   0.0003510500   -0.0005938200   -0.0012698200
  -0.0015028000    0.0006674800   -0.0004229700
  -0.0002805400   -0.0007114000   -0.0003962100
   0.0003894700   -0.0012790200   -0.0003358000
  -0.0008879000    0.0006050300   -0.0004798300
  -0.0001265600    0.0002278100   -0.0003119600
   0.0016798200    0.0005861700   -0.0003485300
  -0.0000213000    0.0000478100   -0.0002529500
   0.0004681200    0.0004199000   -0.0004647000
   0.0003595300   -0.0432224900    0.0166025900
  -0.0010772700    0.0014768500    0.0002607200
   0.0139936000   -0.0086342900   -0.0045031900
   0.0116099400    0.0057327300    0.0058625700
  -0.0007900300    0.0000686500   -0.0000125100
   0.0003246500    0.0006452000    0.0006079900
   0.0007006100    0.0006383100    0.0004642400
  -0.0009128200    0.0001002800    0.0000622300
   0.0003544300   -0.0005564300    0.0002986900
  -0.0000424500    0.0000089500   -0.0009013900
  -0.0000615800    0.0002311700   -0.0002273600
   0.0007177600   -0.0003742200   -0.0021760600
  -0.0003988300   -0.0001413700   -0.0015425300
  -0.0001110900   -0.0001074800   -0.0000955200
   0.0001412000    0.0000505800   -0.0002805200
  -0.0000792300    0.0001745200   -0.0002335000
  -0.0001190000    0.0000193500   -0.0002285300
   0.0001348600   -0.0002554400   -0.0001862400
  -0.0377681600    0.0665591400   -0.0849356000
   0.0024543400   -0.0060751200   -0.0001002500
   0.0039163800   -0.0062267200   -0.0009583800
  -0.0023053000   -0.0037994400   -0.0004915000
   0.0035198300    0.0007404100   -0.0005848900
   0.0001162300   -0.0001897700   -0.0001493100
  -0.0008054000   -0.0023854900   -0.0000756700
   0.0001173900   -0.0001871500   -0.0001292600
   0.0034084000    0.0001418900   -0.0009960600
  -0.0000970800    0.0001708200    0.0006705500
   0.0002414400   -0.0001222200    0.0007959400
   0.0000125100   -0.0001634300    0.0008670100
  -0.0000764200    0.0001006400    0.0008250400
   0.0000410400    0.0000479700    0.0008311200
   0.0000359800   -0.0000508300    0.0001629300
  -0.0003105700   -0.0000838900    0.0007907500
   0.0000317700   -0.0000488300    0.0001604600
   0.0001545900    0.0001568700    0.0008737700
  -0.0003634500   -0.0050728500    0.0065320400
   0.0002597500   -0.0002145600   -0.0000075100
  -0.0014737100    0.0012588600    0.0029912800
   0.0026612300    0.0023579700    0.0047631200
   0.0003439900   -0.0001176700    0.0001916100
  -0.0000695100    0.0000550700   -0.0000728200
  -0.0002043000   -0.0000674300   -0.0000651600
   0.0001487100   -0.0001094800    0.0000591900
  -0.0002509500    0.0000090400    0.0000570300
  -0.0003713400    0.0006330500    0.0019822500
   0.0001013100   -0.0003232300   -0.0000117600
   0.0033913600   -0.0015536400    0.0074376900
  -0.0022382100   -0.0004916800    0.0047260000
   0.0000355000    0.0000702600   -0.0001066900
  -0.0000758400   -0.0003135200    0.0002193800
  -0.0000380900   -0.0001538400    0.0000938800
   0.0001488400    0.0000814700   -0.0001071000
   0.0000744800    0.0001878000    0.0000583600

37   
 -0.0033749968256213   0.0058456659773597  -0.0073781830899067
  -0.0007548800    0.0013007300   -0.0428000800
  -0.0003250900    0.0000498000   -0.0011079000
   0.0001528100   -0.0012355200    0.0002376700
  -0.0002201700   -0.0007415000    0.0001037500
  -0.0005909900    0.0005735100   -0.0009737000
   0.0001290400   -0.0002147700   -0.0002296000
   0.0002043200    0.0002199600   -0.0005700300
   0.0000478500   -0.0000697500   -0.0002093100
   0.0010728500    0.0006891500   -0.0003042000
  -0.0003470300    0.0006122700    0.0012573600
   0.0014962900   -0.0006478600    0.0004056900
   0.0002802100    0.0007333700    0.0003791500
  -0.0003874800    0.0012930500    0.0003211800
   0.0008861600   -0.0005845000    0.0004650200
   0.0001265200   -0.0002100500    0.0002942700
  -0.0016689200   -0.0005657800    0.0003360200
   0.0000229000   -0.0000281700    0.0002361400
  -0.0004708600   -0.0004030500    0.0004493900
  -0.0004939200    0.0414008600   -0.0162263800
   0.0010834400   -0.0014935400   -0.0002801400
  -0.0140338000    0.0085335300    0.0046168700
  -0.0116502800   -0.0057206000   -0.0059925200
   0.0007882500   -0.0000851100   -0.0000054400
  -0.0003288800   -0.0006629700   -0.0006218200
  -0.0006937400   -0.0006660300   -0.0004705200
   0.0009133400   -0.0001184100   -0.0000810000
  -0.0003583100    0.0005451900   -0.0003131600
   0.0000427400   -0.0000284400    0.0008819100
   0.0000639200   -0.0002492400    0.0002130300
  -0.0007248600    0.0003607600    0.0021672200
   0.0004021300    0.0001240200    0.0015184900
   0.0001111000    0.0000885700    0.0000786400
  -0.0001409400   -0.0000695600    0.0002670500
   0.0000792700   -0.0001921100    0.0002136800
   0.0001198400   -0.0000383500    0.0002117800
  -0.0001341300    0.0002371600    0.0001731600
   0.0378530300   -0.0644480200    0.0860784900
  -0.0024337600    0.0060280300    0.0001248300
  -0.0039447800    0.0063009400    0.0009792500
   0.0022831400    0.0037886800    0.0005094100
  -0.0035034100   -0.0007213800    0.0005781700
  -0.0001097200    0.0002018600    0.0001564300
   0.0008214800    0.0024346300    0.0000735700
  -0.0000962000    0.0001980400    0.0001585800
  -0.0034212500   -0.0001377200    0.0010198500
   0.0000961600   -0.0001609400   -0.0006650400
  -0.0002456800    0.0001415800   -0.0007753400
  -0.0000045500    0.0001812000   -0.0008508100
   0.0000649100   -0.0000810500   -0.0008097000
  -0.0000413800   -0.0000336700   -0.0008262700
  -0.0000287200    0.0000639200   -0.0001434900
   0.0003048300    0.0001102800   -0.0007699900
  -0.0000292200    0.0000605200   -0.0001575000
  -0.0001534300   -0.0001502300   -0.0008621000
   0.0003456100    0.0049940700   -0.0063976900
  -0.0002728800    0.0001944800    0.0000139700
   0.0014945600   -0.0012810300   -0.0030021500
  -0.0026504400   -0.0023499500   -0.0046963700
  -0.0003430100    0.0001136700   -0.0001762300
   0.0000767100   -0.0000712600    0.0000823000
   0.0002086200    0.0000519300    0.0000997600
  -0.0001581200    0.0001004200   -0.0000406600
   0.0002570800   -0.0000276200   -0.0000461600
   0.0003446600   -0.0006382800   -0.0019700400
  -0.0000815600    0.0002921400    0.0000163800
  -0.0034557400    0.0015779200   -0.0075273100
   0.0022692400    0.0004660600   -0.0047344300
  -0.0000110500   -0.0000720800    0.0001206600
   0.0000671900    0.0003050200   -0.0002055500
   0.0000275900    0.0001652300   -0.0000713000
  -0.0001624000   -0.0001107100    0.0001177000
  -0.0000661800   -0.0002233300   -0.0000429300
