mesh: [    16,    16,    16 ]
nqpoint: 576    
reciprocal_lattice:
- [   0.26786776,  -0.15465353,   0.00000000 ] # a*
- [   0.26786776,   0.15465353,   0.00000000 ] # b*
- [   0.00000000,   0.00000000,   0.16337407 ] # c*
natom:   4      
lattice:
- [     1.866592659107172,    -3.233033322608715,     0.000000000000000 ] # a
- [     1.866592659107172,     3.233033322608715,     0.000000000000000 ] # b
- [     0.000000000000000,     0.000000000000000,     6.120922376260378 ] # c
points:
- symbol: Zn # 1
  coordinates: [  0.333333333333336,  0.666666666666664,  0.000484262645839 ]
  mass: 65.380000
- symbol: Zn # 2
  coordinates: [  0.666666666666664,  0.333333333333336,  0.500484262645839 ]
  mass: 65.380000
- symbol: S # 3
  coordinates: [  0.333333333333336,  0.666666666666664,  0.374515737354161 ]
  mass: 32.065000
- symbol: S # 4
  coordinates: [  0.666666666666664,  0.333333333333336,  0.874515737354161 ]
  mass: 32.065000

phonon:
- q-position: [    0.0312500,    0.0312500,    0.0312500 ]
  distance_from_gamma:  0.017502892
  weight: 4    
  band:
  - # 1
    frequency:     0.3491348884
  - # 2
    frequency:     0.3575916126
  - # 3
    frequency:     0.9505452205
  - # 4
    frequency:     1.7989960467
  - # 5
    frequency:     1.9115880789
  - # 6
    frequency:     6.0715793400
  - # 7
    frequency:     9.1732307968
  - # 8
    frequency:     9.2416546764
  - # 9
    frequency:     9.3077088321
  - # 10
    frequency:     9.5162689834
  - # 11
    frequency:     9.5166330485
  - # 12
    frequency:    10.9767264191

- q-position: [    0.0937500,    0.0312500,    0.0312500 ]
  distance_from_gamma:  0.035222675
  weight: 8    
  band:
  - # 1
    frequency:     0.6966724223
  - # 2
    frequency:     0.7457185653
  - # 3
    frequency:     1.7566784429
  - # 4
    frequency:     1.9629053641
  - # 5
    frequency:     2.3017072256
  - # 6
    frequency:     6.0166753129
  - # 7
    frequency:     9.2182659553
  - # 8
    frequency:     9.3088561979
  - # 9
    frequency:     9.5245041303
  - # 10
    frequency:     9.5874941734
  - # 11
    frequency:     9.6234366962
  - # 12
    frequency:    10.9852566623

- q-position: [    0.1562500,    0.0312500,    0.0312500 ]
  distance_from_gamma:  0.054058774
  weight: 8    
  band:
  - # 1
    frequency:     1.0372890849
  - # 2
    frequency:     1.1698343811
  - # 3
    frequency:     1.9863341540
  - # 4
    frequency:     2.6620828347
  - # 5
    frequency:     2.9034186200
  - # 6
    frequency:     5.9582467900
  - # 7
    frequency:     9.3040472803
  - # 8
    frequency:     9.4025693387
  - # 9
    frequency:     9.6780975934
  - # 10
    frequency:     9.6980051700
  - # 11
    frequency:     9.9357886427
  - # 12
    frequency:    11.0050569352

- q-position: [    0.2187500,    0.0312500,    0.0312500 ]
  distance_from_gamma:  0.073153905
  weight: 8    
  band:
  - # 1
    frequency:     1.3435600390
  - # 2
    frequency:     1.5994811599
  - # 3
    frequency:     2.1371315972
  - # 4
    frequency:     3.1184232821
  - # 5
    frequency:     3.7132260123
  - # 6
    frequency:     5.9571459642
  - # 7
    frequency:     9.4223312277
  - # 8
    frequency:     9.4919403636
  - # 9
    frequency:     9.7817656836
  - # 10
    frequency:     9.8431206137
  - # 11
    frequency:    10.2955169148
  - # 12
    frequency:    11.0402686205

- q-position: [    0.2812500,    0.0312500,    0.0312500 ]
  distance_from_gamma:  0.092347523
  weight: 8    
  band:
  - # 1
    frequency:     1.5899573359
  - # 2
    frequency:     2.0036666304
  - # 3
    frequency:     2.2805370251
  - # 4
    frequency:     3.3536191945
  - # 5
    frequency:     4.4729754433
  - # 6
    frequency:     6.0564864853
  - # 7
    frequency:     9.5467711205
  - # 8
    frequency:     9.5698794719
  - # 9
    frequency:     9.8716022009
  - # 10
    frequency:     9.9847832516
  - # 11
    frequency:    10.5784986891
  - # 12
    frequency:    11.0929732715

- q-position: [    0.3437500,    0.0312500,    0.0312500 ]
  distance_from_gamma:  0.111588820
  weight: 8    
  band:
  - # 1
    frequency:     1.7573589522
  - # 2
    frequency:     2.3550755669
  - # 3
    frequency:     2.4091827555
  - # 4
    frequency:     3.4034620044
  - # 5
    frequency:     5.1022555608
  - # 6
    frequency:     6.2209727978
  - # 7
    frequency:     9.5829806999
  - # 8
    frequency:     9.7054718695
  - # 9
    frequency:     9.9526763870
  - # 10
    frequency:    10.1060328967
  - # 11
    frequency:    10.7287247309
  - # 12
    frequency:    11.1605608097

- q-position: [    0.4062500,    0.0312500,    0.0312500 ]
  distance_from_gamma:  0.130856765
  weight: 8    
  band:
  - # 1
    frequency:     1.8480815153
  - # 2
    frequency:     2.5039432667
  - # 3
    frequency:     2.6351721616
  - # 4
    frequency:     3.3430412631
  - # 5
    frequency:     5.5541097712
  - # 6
    frequency:     6.3590718063
  - # 7
    frequency:     9.5927753083
  - # 8
    frequency:     9.8150943349
  - # 9
    frequency:    10.0271951852
  - # 10
    frequency:    10.1978823902
  - # 11
    frequency:    10.7619378114
  - # 12
    frequency:    11.2196315789

- q-position: [    0.4687500,    0.0312500,    0.0312500 ]
  distance_from_gamma:  0.150141100
  weight: 8    
  band:
  - # 1
    frequency:     1.8812084618
  - # 2
    frequency:     2.5504830174
  - # 3
    frequency:     2.7914845276
  - # 4
    frequency:     3.2705730657
  - # 5
    frequency:     5.7704439374
  - # 6
    frequency:     6.4161803948
  - # 7
    frequency:     9.5937810989
  - # 8
    frequency:     9.8666313631
  - # 9
    frequency:    10.0707753243
  - # 10
    frequency:    10.2473965944
  - # 11
    frequency:    10.7504528369
  - # 12
    frequency:    11.2463184522

- q-position: [   -0.4687500,    0.0312500,    0.0312500 ]
  distance_from_gamma:  0.140497306
  weight: 8    
  band:
  - # 1
    frequency:     1.8706096281
  - # 2
    frequency:     2.5346425492
  - # 3
    frequency:     2.7341824251
  - # 4
    frequency:     3.3004950806
  - # 5
    frequency:     5.6960675021
  - # 6
    frequency:     6.3980593320
  - # 7
    frequency:     9.5936759788
  - # 8
    frequency:     9.8491859806
  - # 9
    frequency:    10.0552563641
  - # 10
    frequency:    10.2296012572
  - # 11
    frequency:    10.7566494033
  - # 12
    frequency:    11.2374850544

- q-position: [   -0.4062500,    0.0312500,    0.0312500 ]
  distance_from_gamma:  0.121220255
  weight: 8    
  band:
  - # 1
    frequency:     1.8112624260
  - # 2
    frequency:     2.4596537989
  - # 3
    frequency:     2.5081556991
  - # 4
    frequency:     3.3815268433
  - # 5
    frequency:     5.3535232829
  - # 6
    frequency:     6.2985242868
  - # 7
    frequency:     9.5897889110
  - # 8
    frequency:     9.7661456988
  - # 9
    frequency:     9.9915220201
  - # 10
    frequency:    10.1560572621
  - # 11
    frequency:    10.7560676861
  - # 12
    frequency:    11.1932349842

- q-position: [   -0.3437500,    0.0312500,    0.0312500 ]
  distance_from_gamma:  0.101963897
  weight: 8    
  band:
  - # 1
    frequency:     1.6839789157
  - # 2
    frequency:     2.1875923881
  - # 3
    frequency:     2.3471722285
  - # 4
    frequency:     3.3977336970
  - # 5
    frequency:     4.8068364879
  - # 6
    frequency:     6.1360917833
  - # 7
    frequency:     9.5702451021
  - # 8
    frequency:     9.6375282256
  - # 9
    frequency:     9.9127333425
  - # 10
    frequency:    10.0486594366
  - # 11
    frequency:    10.6711756520
  - # 12
    frequency:    11.1257575636

- q-position: [   -0.2812500,    0.0312500,    0.0312500 ]
  distance_from_gamma:  0.082742678
  weight: 8    
  band:
  - # 1
    frequency:     1.4758027376
  - # 2
    frequency:     1.8065883910
  - # 3
    frequency:     2.2101880515
  - # 4
    frequency:     3.2621602692
  - # 5
    frequency:     4.1062814280
  - # 6
    frequency:     5.9942335416
  - # 7
    frequency:     9.4894083055
  - # 8
    frequency:     9.5284447189
  - # 9
    frequency:     9.8282516458
  - # 10
    frequency:     9.9156771793
  - # 11
    frequency:    10.4513933311
  - # 12
    frequency:    11.0643505762

- q-position: [   -0.2187500,    0.0312500,    0.0312500 ]
  distance_from_gamma:  0.063588473
  weight: 8    
  band:
  - # 1
    frequency:     1.1962608907
  - # 2
    frequency:     1.3859146300
  - # 3
    frequency:     2.0623071416
  - # 4
    frequency:     2.9212429324
  - # 5
    frequency:     3.3038124353
  - # 6
    frequency:     5.9466152394
  - # 7
    frequency:     9.3597602224
  - # 8
    frequency:     9.4494599089
  - # 9
    frequency:     9.7318601835
  - # 10
    frequency:     9.7694221937
  - # 11
    frequency:    10.1197987392
  - # 12
    frequency:    11.0205687440

- q-position: [   -0.1562500,    0.0312500,    0.0312500 ]
  distance_from_gamma:  0.044587727
  weight: 8    
  band:
  - # 1
    frequency:     0.8698504376
  - # 2
    frequency:     0.9552407115
  - # 3
    frequency:     1.9057083290
  - # 4
    frequency:     2.3114775044
  - # 5
    frequency:     2.5691590842
  - # 6
    frequency:     5.9843859070
  - # 7
    frequency:     9.2565410368
  - # 8
    frequency:     9.3544130997
  - # 9
    frequency:     9.6138372671
  - # 10
    frequency:     9.6369375083
  - # 11
    frequency:     9.7594973876
  - # 12
    frequency:    10.9934435524

- q-position: [   -0.0937500,    0.0312500,    0.0312500 ]
  distance_from_gamma:  0.026078065
  weight: 8    
  band:
  - # 1
    frequency:     0.5206428444
  - # 2
    frequency:     0.5443593037
  - # 3
    frequency:     1.3714309840
  - # 4
    frequency:     1.8451657665
  - # 5
    frequency:     2.0784484440
  - # 6
    frequency:     6.0476707905
  - # 7
    frequency:     9.1901700164
  - # 8
    frequency:     9.2699919695
  - # 9
    frequency:     9.4066304805
  - # 10
    frequency:     9.5466319699
  - # 11
    frequency:     9.5533031492
  - # 12
    frequency:    10.9798890886

- q-position: [   -0.0312500,    0.0312500,    0.0312500 ]
  distance_from_gamma:  0.010931335
  weight: 4    
  band:
  - # 1
    frequency:     0.2176989231
  - # 2
    frequency:     0.2181937807
  - # 3
    frequency:     0.6249092670
  - # 4
    frequency:     1.7789007702
  - # 5
    frequency:     1.8200794034
  - # 6
    frequency:     6.0845066474
  - # 7
    frequency:     9.1672612699
  - # 8
    frequency:     9.2269657179
  - # 9
    frequency:     9.2516848898
  - # 10
    frequency:     9.4993585912
  - # 11
    frequency:     9.5001311896
  - # 12
    frequency:    10.9752793543

- q-position: [    0.0937500,    0.0937500,    0.0312500 ]
  distance_from_gamma:  0.050484025
  weight: 4    
  band:
  - # 1
    frequency:     1.0852476973
  - # 2
    frequency:     1.0855821711
  - # 3
    frequency:     1.9175363291
  - # 4
    frequency:     2.6395712611
  - # 5
    frequency:     2.6564951118
  - # 6
    frequency:     5.9659053834
  - # 7
    frequency:     9.2845271727
  - # 8
    frequency:     9.4110839158
  - # 9
    frequency:     9.6418391646
  - # 10
    frequency:     9.6554523927
  - # 11
    frequency:     9.8768598168
  - # 12
    frequency:    10.9985901749

- q-position: [    0.1562500,    0.0937500,    0.0312500 ]
  distance_from_gamma:  0.067853263
  weight: 8    
  band:
  - # 1
    frequency:     1.4354887940
  - # 2
    frequency:     1.4802501849
  - # 3
    frequency:     2.1141766200
  - # 4
    frequency:     2.9928745571
  - # 5
    frequency:     3.4202448230
  - # 6
    frequency:     5.9423133891
  - # 7
    frequency:     9.3857488041
  - # 8
    frequency:     9.5226083210
  - # 9
    frequency:     9.7313622522
  - # 10
    frequency:     9.7873269255
  - # 11
    frequency:    10.2022454087
  - # 12
    frequency:    11.0202940858

- q-position: [    0.2187500,    0.0937500,    0.0312500 ]
  distance_from_gamma:  0.086063478
  weight: 8    
  band:
  - # 1
    frequency:     1.7180518183
  - # 2
    frequency:     1.8774863109
  - # 3
    frequency:     2.3012041472
  - # 4
    frequency:     3.2527529811
  - # 5
    frequency:     4.1540967216
  - # 6
    frequency:     5.9941723884
  - # 7
    frequency:     9.5105667721
  - # 8
    frequency:     9.5962763972
  - # 9
    frequency:     9.8071591582
  - # 10
    frequency:     9.9610010991
  - # 11
    frequency:    10.4990746585
  - # 12
    frequency:    11.0503513103

- q-position: [    0.2812500,    0.0937500,    0.0312500 ]
  distance_from_gamma:  0.104676682
  weight: 8    
  band:
  - # 1
    frequency:     1.9274251921
  - # 2
    frequency:     2.2395727422
  - # 3
    frequency:     2.4569465024
  - # 4
    frequency:     3.3640447251
  - # 5
    frequency:     4.8051104903
  - # 6
    frequency:     6.1214975886
  - # 7
    frequency:     9.5992118966
  - # 8
    frequency:     9.6774008993
  - # 9
    frequency:     9.8694411106
  - # 10
    frequency:    10.1318770371
  - # 11
    frequency:    10.6954888903
  - # 12
    frequency:    11.0954844964

- q-position: [    0.3437500,    0.0937500,    0.0312500 ]
  distance_from_gamma:  0.123510816
  weight: 8    
  band:
  - # 1
    frequency:     2.0587377240
  - # 2
    frequency:     2.5254429962
  - # 3
    frequency:     2.5912559926
  - # 4
    frequency:     3.3546965002
  - # 5
    frequency:     5.3253385524
  - # 6
    frequency:     6.2584020068
  - # 7
    frequency:     9.6138820883
  - # 8
    frequency:     9.8031172246
  - # 9
    frequency:     9.9082640598
  - # 10
    frequency:    10.2781191279
  - # 11
    frequency:    10.7591104035
  - # 12
    frequency:    11.1587011048

- q-position: [    0.4062500,    0.0937500,    0.0312500 ]
  distance_from_gamma:  0.142478294
  weight: 8    
  band:
  - # 1
    frequency:     2.1217619376
  - # 2
    frequency:     2.6360018014
  - # 3
    frequency:     2.7641708812
  - # 4
    frequency:     3.2917971030
  - # 5
    frequency:     5.6596544748
  - # 6
    frequency:     6.3356543864
  - # 7
    frequency:     9.6178700798
  - # 8
    frequency:     9.8932144976
  - # 9
    frequency:     9.9257570869
  - # 10
    frequency:    10.3850443955
  - # 11
    frequency:    10.7390287416
  - # 12
    frequency:    11.2076708211

- q-position: [   -0.5312500,    0.0937500,    0.0312500 ]
  distance_from_gamma:  0.151996451
  weight: 8    
  band:
  - # 1
    frequency:     2.1332042092
  - # 2
    frequency:     2.6531895832
  - # 3
    frequency:     2.8138852035
  - # 4
    frequency:     3.2685793710
  - # 5
    frequency:     5.7337144611
  - # 6
    frequency:     6.3479784329
  - # 7
    frequency:     9.6187855788
  - # 8
    frequency:     9.9136590667
  - # 9
    frequency:     9.9282027728
  - # 10
    frequency:    10.4124477333
  - # 11
    frequency:    10.7261593568
  - # 12
    frequency:    11.2181896251

- q-position: [   -0.4687500,    0.0937500,    0.0312500 ]
  distance_from_gamma:  0.132981444
  weight: 8    
  band:
  - # 1
    frequency:     2.0976499474
  - # 2
    frequency:     2.5995394880
  - # 3
    frequency:     2.6796949770
  - # 4
    frequency:     3.3249925648
  - # 5
    frequency:     5.5199992004
  - # 6
    frequency:     6.3066132209
  - # 7
    frequency:     9.6162550887
  - # 8
    frequency:     9.8552770077
  - # 9
    frequency:     9.9192991511
  - # 10
    frequency:    10.3379737447
  - # 11
    frequency:    10.7541793741
  - # 12
    frequency:    11.1872112211

- q-position: [   -0.4062500,    0.0937500,    0.0312500 ]
  distance_from_gamma:  0.114072942
  weight: 8    
  band:
  - # 1
    frequency:     2.0026221806
  - # 2
    frequency:     2.3965428461
  - # 3
    frequency:     2.5241404252
  - # 4
    frequency:     3.3706554725
  - # 5
    frequency:     5.0846423141
  - # 6
    frequency:     6.1940452426
  - # 7
    frequency:     9.6095855412
  - # 8
    frequency:     9.7414854261
  - # 9
    frequency:     9.8918642935
  - # 10
    frequency:    10.2088892857
  - # 11
    frequency:    10.7426181579
  - # 12
    frequency:    11.1262470681

- q-position: [   -0.3437500,    0.0937500,    0.0312500 ]
  distance_from_gamma:  0.095334340
  weight: 8    
  band:
  - # 1
    frequency:     1.8324123951
  - # 2
    frequency:     2.0650506131
  - # 3
    frequency:     2.3830231881
  - # 4
    frequency:     3.3267872093
  - # 5
    frequency:     4.4929649480
  - # 6
    frequency:     6.0514007477
  - # 7
    frequency:     9.5685914136
  - # 8
    frequency:     9.6265501318
  - # 9
    frequency:     9.8409203719
  - # 10
    frequency:    10.0485225739
  - # 11
    frequency:    10.6134763232
  - # 12
    frequency:    11.0702063785

- q-position: [   -0.2812500,    0.0937500,    0.0312500 ]
  distance_from_gamma:  0.076889955
  weight: 8    
  band:
  - # 1
    frequency:     1.5854507170
  - # 2
    frequency:     1.6810110006
  - # 3
    frequency:     2.2112364596
  - # 4
    frequency:     3.1400460692
  - # 5
    frequency:     3.7944524636
  - # 6
    frequency:     5.9570658485
  - # 7
    frequency:     9.4465234282
  - # 8
    frequency:     9.5646757579
  - # 9
    frequency:     9.7699429101
  - # 10
    frequency:     9.8725511741
  - # 11
    frequency:    10.3591331167
  - # 12
    frequency:    11.0341350075

- q-position: [   -0.2187500,    0.0937500,    0.0312500 ]
  distance_from_gamma:  0.059016290
  weight: 8    
  band:
  - # 1
    frequency:     1.2681904883
  - # 2
    frequency:     1.2804500498
  - # 3
    frequency:     2.0137267199
  - # 4
    frequency:     2.8215396608
  - # 5
    frequency:     3.0381519765
  - # 6
    frequency:     5.9472295756
  - # 7
    frequency:     9.3312285345
  - # 8
    frequency:     9.4698013924
  - # 9
    frequency:     9.6929127993
  - # 10
    frequency:     9.7095424300
  - # 11
    frequency:    10.0379531408
  - # 12
    frequency:    11.0084321297

- q-position: [   -0.1562500,    0.0937500,    0.0312500 ]
  distance_from_gamma:  0.042440644
  weight: 8    
  band:
  - # 1
    frequency:     0.8872636650
  - # 2
    frequency:     0.9056262226
  - # 3
    frequency:     1.8354112476
  - # 4
    frequency:     2.2849997449
  - # 5
    frequency:     2.4631289530
  - # 6
    frequency:     5.9912760120
  - # 7
    frequency:     9.2466618229
  - # 8
    frequency:     9.3545455936
  - # 9
    frequency:     9.5834038288
  - # 10
    frequency:     9.6198304183
  - # 11
    frequency:     9.7317957152
  - # 12
    frequency:    10.9908671387

- q-position: [   -0.0937500,    0.0937500,    0.0312500 ]
  distance_from_gamma:  0.029443549
  weight: 4    
  band:
  - # 1
    frequency:     0.5609249084
  - # 2
    frequency:     0.6187169443
  - # 3
    frequency:     1.5603039029
  - # 4
    frequency:     1.8422844791
  - # 5
    frequency:     2.1668059087
  - # 6
    frequency:     6.0367117648
  - # 7
    frequency:     9.1995047477
  - # 8
    frequency:     9.2805074827
  - # 9
    frequency:     9.4554364796
  - # 10
    frequency:     9.5605377581
  - # 11
    frequency:     9.5719306336
  - # 12
    frequency:    10.9816458575

- q-position: [    0.1562500,    0.1562500,    0.0312500 ]
  distance_from_gamma:  0.083864223
  weight: 4    
  band:
  - # 1
    frequency:     1.8267874739
  - # 2
    frequency:     1.8337415841
  - # 3
    frequency:     2.3206924053
  - # 4
    frequency:     3.1947370902
  - # 5
    frequency:     4.0085111123
  - # 6
    frequency:     5.9716202077
  - # 7
    frequency:     9.4960985559
  - # 8
    frequency:     9.6184127110
  - # 9
    frequency:     9.8247030318
  - # 10
    frequency:     9.9047612238
  - # 11
    frequency:    10.4725234802
  - # 12
    frequency:    11.0304087420

- q-position: [    0.2187500,    0.1562500,    0.0312500 ]
  distance_from_gamma:  0.101043452
  weight: 8    
  band:
  - # 1
    frequency:     2.1303564779
  - # 2
    frequency:     2.1782388671
  - # 3
    frequency:     2.5357780354
  - # 4
    frequency:     3.2954860000
  - # 5
    frequency:     4.5772359285
  - # 6
    frequency:     6.0548909592
  - # 7
    frequency:     9.6104777996
  - # 8
    frequency:     9.6433876669
  - # 9
    frequency:     9.9311043182
  - # 10
    frequency:    10.0670937593
  - # 11
    frequency:    10.6947151861
  - # 12
    frequency:    11.0331508575

- q-position: [    0.2812500,    0.1562500,    0.0312500 ]
  distance_from_gamma:  0.118885571
  weight: 8    
  band:
  - # 1
    frequency:     2.3387012914
  - # 2
    frequency:     2.4762176954
  - # 3
    frequency:     2.7103487596
  - # 4
    frequency:     3.3145570203
  - # 5
    frequency:     5.0833687754
  - # 6
    frequency:     6.1555984878
  - # 7
    frequency:     9.6185528320
  - # 8
    frequency:     9.7423350954
  - # 9
    frequency:     9.9782571136
  - # 10
    frequency:    10.2573988337
  - # 11
    frequency:    10.8028659092
  - # 12
    frequency:    11.0619139402

- q-position: [    0.3437500,    0.1562500,    0.0312500 ]
  distance_from_gamma:  0.137132079
  weight: 8    
  band:
  - # 1
    frequency:     2.4604709980
  - # 2
    frequency:     2.6979071024
  - # 3
    frequency:     2.8253692469
  - # 4
    frequency:     3.2896483419
  - # 5
    frequency:     5.4766711379
  - # 6
    frequency:     6.2182288693
  - # 7
    frequency:     9.6252311146
  - # 8
    frequency:     9.7912999024
  - # 9
    frequency:    10.0153987321
  - # 10
    frequency:    10.4263705927
  - # 11
    frequency:    10.7701680592
  - # 12
    frequency:    11.1322658770

- q-position: [    0.4062500,    0.1562500,    0.0312500 ]
  distance_from_gamma:  0.155640817
  weight: 8    
  band:
  - # 1
    frequency:     2.5082900845
  - # 2
    frequency:     2.8207419968
  - # 3
    frequency:     2.8617806219
  - # 4
    frequency:     3.2648943421
  - # 5
    frequency:     5.6814115660
  - # 6
    frequency:     6.2273352710
  - # 7
    frequency:     9.6426127922
  - # 8
    frequency:     9.7804980712
  - # 9
    frequency:    10.0488934827
  - # 10
    frequency:    10.5500749828
  - # 11
    frequency:    10.6885030372
  - # 12
    frequency:    11.1739894020

- q-position: [   -0.5312500,    0.1562500,    0.0312500 ]
  distance_from_gamma:  0.146359855
  weight: 8    
  band:
  - # 1
    frequency:     2.4927142085
  - # 2
    frequency:     2.7737585503
  - # 3
    frequency:     2.8542590679
  - # 4
    frequency:     3.2744460565
  - # 5
    frequency:     5.6090608111
  - # 6
    frequency:     6.2271263500
  - # 7
    frequency:     9.6346235903
  - # 8
    frequency:     9.7879513021
  - # 9
    frequency:    10.0359696966
  - # 10
    frequency:    10.4974151788
  - # 11
    frequency:    10.7281745304
  - # 12
    frequency:    11.1595471888

- q-position: [   -0.4687500,    0.1562500,    0.0312500 ]
  distance_from_gamma:  0.127968998
  weight: 8    
  band:
  - # 1
    frequency:     2.4097590669
  - # 2
    frequency:     2.5979098147
  - # 3
    frequency:     2.7763611644
  - # 4
    frequency:     3.3049091516
  - # 5
    frequency:     5.2979439275
  - # 6
    frequency:     6.1943745724
  - # 7
    frequency:     9.6194776628
  - # 8
    frequency:     9.7777204563
  - # 9
    frequency:     9.9951082164
  - # 10
    frequency:    10.3457352109
  - # 11
    frequency:    10.7992513970
  - # 12
    frequency:    11.0965621137

- q-position: [   -0.4062500,    0.1562500,    0.0312500 ]
  distance_from_gamma:  0.109901549
  weight: 8    
  band:
  - # 1
    frequency:     2.2458805304
  - # 2
    frequency:     2.3352834752
  - # 3
    frequency:     2.6296094139
  - # 4
    frequency:     3.3131453074
  - # 5
    frequency:     4.8409315655
  - # 6
    frequency:     6.1066930560
  - # 7
    frequency:     9.6202115776
  - # 8
    frequency:     9.6912276481
  - # 9
    frequency:     9.9595304194
  - # 10
    frequency:    10.1631723388
  - # 11
    frequency:    10.7682298769
  - # 12
    frequency:    11.0403223168

- q-position: [   -0.3437500,    0.1562500,    0.0312500 ]
  distance_from_gamma:  0.092347523
  weight: 8    
  band:
  - # 1
    frequency:     1.9911359085
  - # 2
    frequency:     2.0092324114
  - # 3
    frequency:     2.4312357893
  - # 4
    frequency:     3.2570665590
  - # 5
    frequency:     4.2980436911
  - # 6
    frequency:     6.0078047672
  - # 7
    frequency:     9.5573437882
  - # 8
    frequency:     9.6321592457
  - # 9
    frequency:     9.8862160163
  - # 10
    frequency:     9.9777440843
  - # 11
    frequency:    10.5929249349
  - # 12
    frequency:    11.0319181835

- q-position: [   -0.2812500,    0.1562500,    0.0312500 ]
  distance_from_gamma:  0.075665104
  weight: 8    
  band:
  - # 1
    frequency:     1.6406040398
  - # 2
    frequency:     1.6546425014
  - # 3
    frequency:     2.2117982545
  - # 4
    frequency:     3.1069983304
  - # 5
    frequency:     3.7136820934
  - # 6
    frequency:     5.9497479423
  - # 7
    frequency:     9.4380100568
  - # 8
    frequency:     9.5823721267
  - # 9
    frequency:     9.7677530037
  - # 10
    frequency:     9.8436371230
  - # 11
    frequency:    10.3403357458
  - # 12
    frequency:    11.0265097698

- q-position: [   -0.2187500,    0.1562500,    0.0312500 ]
  distance_from_gamma:  0.060578706
  weight: 8    
  band:
  - # 1
    frequency:     1.2254129559
  - # 2
    frequency:     1.3166876112
  - # 3
    frequency:     2.0372204476
  - # 4
    frequency:     2.8479894448
  - # 5
    frequency:     3.1415550583
  - # 6
    frequency:     5.9466178924
  - # 7
    frequency:     9.3408039940
  - # 8
    frequency:     9.4570820828
  - # 9
    frequency:     9.7061953776
  - # 10
    frequency:     9.7367278900
  - # 11
    frequency:    10.0646395433
  - # 12
    frequency:    11.0127387415

- q-position: [   -0.1562500,    0.1562500,    0.0312500 ]
  distance_from_gamma:  0.048598145
  weight: 4    
  band:
  - # 1
    frequency:     0.9096454413
  - # 2
    frequency:     1.0464958390
  - # 3
    frequency:     1.9541077165
  - # 4
    frequency:     2.4549863551
  - # 5
    frequency:     2.7180678547
  - # 6
    frequency:     5.9723001589
  - # 7
    frequency:     9.2758585745
  - # 8
    frequency:     9.3678542231
  - # 9
    frequency:     9.6453142003
  - # 10
    frequency:     9.6682199809
  - # 11
    frequency:     9.8283058865
  - # 12
    frequency:    10.9983486539

- q-position: [    0.2187500,    0.2187500,    0.0312500 ]
  distance_from_gamma:  0.117303302
  weight: 4    
  band:
  - # 1
    frequency:     2.4433975769
  - # 2
    frequency:     2.4854949485
  - # 3
    frequency:     2.7862779353
  - # 4
    frequency:     3.2755489407
  - # 5
    frequency:     4.9708926885
  - # 6
    frequency:     6.1124999969
  - # 7
    frequency:     9.6119782847
  - # 8
    frequency:     9.7165354707
  - # 9
    frequency:    10.1199295525
  - # 10
    frequency:    10.1411756392
  - # 11
    frequency:    10.8700919597
  - # 12
    frequency:    10.9815729984

- q-position: [    0.2812500,    0.2187500,    0.0312500 ]
  distance_from_gamma:  0.134379235
  weight: 8    
  band:
  - # 1
    frequency:     2.6678536040
  - # 2
    frequency:     2.7261411364
  - # 3
    frequency:     2.9821410582
  - # 4
    frequency:     3.2389719202
  - # 5
    frequency:     5.3216366309
  - # 6
    frequency:     6.1321001243
  - # 7
    frequency:     9.5981062069
  - # 8
    frequency:     9.7560407933
  - # 9
    frequency:    10.1616356801
  - # 10
    frequency:    10.3373206526
  - # 11
    frequency:    10.8707568952
  - # 12
    frequency:    11.0325352199

- q-position: [    0.3437500,    0.2187500,    0.0312500 ]
  distance_from_gamma:  0.151996451
  weight: 8    
  band:
  - # 1
    frequency:     2.8224921995
  - # 2
    frequency:     2.8678505480
  - # 3
    frequency:     3.0279875974
  - # 4
    frequency:     3.2546471495
  - # 5
    frequency:     5.5859917310
  - # 6
    frequency:     6.0998101194
  - # 7
    frequency:     9.6196747831
  - # 8
    frequency:     9.7170062879
  - # 9
    frequency:    10.2032983705
  - # 10
    frequency:    10.5146494859
  - # 11
    frequency:    10.7447033927
  - # 12
    frequency:    11.1218900931

- q-position: [   -0.5937500,    0.2187500,    0.0312500 ]
  distance_from_gamma:  0.160952720
  weight: 8    
  band:
  - # 1
    frequency:     2.8564040752
  - # 2
    frequency:     2.9133535794
  - # 3
    frequency:     3.0056388676
  - # 4
    frequency:     3.2701058764
  - # 5
    frequency:     5.6544534867
  - # 6
    frequency:     6.0803519053
  - # 7
    frequency:     9.6439006860
  - # 8
    frequency:     9.6846756494
  - # 9
    frequency:    10.2155975382
  - # 10
    frequency:    10.5953293236
  - # 11
    frequency:    10.6723340774
  - # 12
    frequency:    11.1409232768

- q-position: [   -0.5312500,    0.2187500,    0.0312500 ]
  distance_from_gamma:  0.143132531
  weight: 8    
  band:
  - # 1
    frequency:     2.7561627799
  - # 2
    frequency:     2.8071652662
  - # 3
    frequency:     3.0275613126
  - # 4
    frequency:     3.2380006791
  - # 5
    frequency:     5.4692880702
  - # 6
    frequency:     6.1211690373
  - # 7
    frequency:     9.6036745465
  - # 8
    frequency:     9.7442477155
  - # 9
    frequency:    10.1831220064
  - # 10
    frequency:    10.4289862100
  - # 11
    frequency:    10.8116860923
  - # 12
    frequency:    11.0848780463

- q-position: [   -0.4687500,    0.2187500,    0.0312500 ]
  distance_from_gamma:  0.125759664
  weight: 8    
  band:
  - # 1
    frequency:     2.5632012481
  - # 2
    frequency:     2.6191695965
  - # 3
    frequency:     2.8965210129
  - # 4
    frequency:     3.2555165317
  - # 5
    frequency:     5.1533771511
  - # 6
    frequency:     6.1288713513
  - # 7
    frequency:     9.6018614446
  - # 8
    frequency:     9.7464260718
  - # 9
    frequency:    10.1427605860
  - # 10
    frequency:    10.2395142381
  - # 11
    frequency:    10.9114174517
  - # 12
    frequency:    10.9763019622

- q-position: [   -0.4062500,    0.2187500,    0.0312500 ]
  distance_from_gamma:  0.109048124