# Thermal properties / unit cell (natom)

unit:
  temperature:   K
  free_energy:   kJ/mol
  entropy:       J/K/mol
  heat_capacity: J/K/mol

natom: 4    
cutoff_frequency: 0.00000
num_modes: 49152
num_integrated_modes: 49152

zero_point_energy:      16.2994048

thermal_properties:
- temperature:         0.0000000
  free_energy:        16.2994048
  entropy:             0.0000000
  heat_capacity:       0.0000000
  energy:             16.2994048

- temperature:        10.0000000
  free_energy:        16.2991137
  entropy:             0.1197498
  heat_capacity:       0.3935208
  energy:             16.3003112

- temperature:        20.0000000
  free_energy:        16.2933278
  entropy:             1.3641217
  heat_capacity:       4.5843528
  energy:             16.3206103

- temperature:        30.0000000
  free_energy:        16.2649686
  entropy:             4.5891251
  heat_capacity:      11.9268188
  energy:             16.4026424

- temperature:        40.0000000
  free_energy:        16.1976930
  entropy:             8.9835651
  heat_capacity:      18.7620344
  energy:             16.5570356

- temperature:        50.0000000
  free_energy:        16.0839139
  entropy:            13.8079071
  heat_capacity:      24.5476781
  energy:             16.7743092

- temperature:        60.0000000
  free_energy:        15.9211803
  entropy:            18.7452486
  heat_capacity:      29.7005602
  energy:             17.0458952

- temperature:        70.0000000
  free_energy:        15.7089843
  entropy:            23.6921842
  heat_capacity:      34.5808226
  energy:             17.3674372

- temperature:        80.0000000
  free_energy:        15.4473967
  entropy:            28.6215316
  heat_capacity:      39.3384911
  energy:             17.7371193

- temperature:        90.0000000
  free_energy:        15.1366425
  entropy:            33.5241680
  heat_capacity:      43.9774557
  energy:             18.1538176

- temperature:       100.0000000
  free_energy:        14.7770340
  entropy:            38.3904941
  heat_capacity:      48.4408445
  energy:             18.6160834

- temperature:       110.0000000
  free_energy:        14.3689964
  entropy:            43.2076352
  heat_capacity:      52.6654020
  energy:             19.1218363

- temperature:       120.0000000
  free_energy:        13.9130932
  entropy:            47.9612133
  heat_capacity:      56.6049437
  energy:             19.6684388

- temperature:       130.0000000
  free_energy:        13.4100301
  entropy:            52.6374814
  heat_capacity:      60.2353763
  energy:             20.2529027

- temperature:       140.0000000
  free_energy:        12.8606408
  entropy:            57.2246912
  heat_capacity:      63.5516125
  energy:             20.8720975

- temperature:       150.0000000
  free_energy:        12.2658640
  entropy:            61.7136745
  heat_capacity:      66.5622011
  energy:             21.5229152

- temperature:       160.0000000
  free_energy:        11.6267168
  entropy:            66.0978906
  heat_capacity:      69.2842516
  energy:             22.2023793

- temperature:       170.0000000
  free_energy:        10.9442695
  entropy:            70.3731831
  heat_capacity:      71.7394848
  energy:             22.9077106

- temperature:       180.0000000
  free_energy:        10.2196235
  entropy:            74.5374147
  heat_capacity:      73.9514698
  energy:             23.6363581

- temperature:       190.0000000
  free_energy:         9.4538932
  entropy:            78.5900781
  heat_capacity:      75.9438369
  energy:             24.3860081

- temperature:       200.0000000
  free_energy:         8.6481914
  entropy:            82.5319350
  heat_capacity:      77.7392056
  energy:             25.1545784

- temperature:       210.0000000
  free_energy:         7.8036182
  entropy:            86.3647028
  heat_capacity:      79.3586042
  energy:             25.9402058

- temperature:       220.0000000
  free_energy:         6.9212530
  entropy:            90.0907958
  heat_capacity:      80.8212098
  energy:             26.7412281

- temperature:       230.0000000
  free_energy:         6.0021482
  entropy:            93.7131168
  heat_capacity:      82.1442871
  energy:             27.5561651

- temperature:       240.0000000
  free_energy:         5.0473258
  entropy:            97.2348935
  heat_capacity:      83.3432450
  energy:             28.3837003

- temperature:       250.0000000
  free_energy:         4.0577741
  entropy:           100.6595517
  heat_capacity:      84.4317571
  energy:             29.2226620

- temperature:       260.0000000
  free_energy:         3.0344467
  entropy:           103.9906190
  heat_capacity:      85.4219118
  energy:             30.0720077

- temperature:       270.0000000
  free_energy:         1.9782618
  entropy:           107.2316528
  heat_capacity:      86.3243732
  energy:             30.9308081

- temperature:       280.0000000
  free_energy:         0.8901020
  entropy:           110.3861867
  heat_capacity:      87.1485379
  energy:             31.7982343

- temperature:       290.0000000
  free_energy:        -0.2291851
  entropy:           113.4576921
  heat_capacity:      87.9026829
  energy:             32.6735456

- temperature:       300.0000000
  free_energy:        -1.3787863
  entropy:           116.4495510
  heat_capacity:      88.5941017
  energy:             33.5560790

- temperature:       310.0000000
  free_energy:        -2.5579216
  entropy:           119.3650376
  heat_capacity:      89.2292252
  energy:             34.4452400

- temperature:       320.0000000
  free_energy:        -3.7658431
  entropy:           122.2073058
  heat_capacity:      89.8137301
  energy:             35.3404948

- temperature:       330.0000000
  free_energy:        -5.0018338
  entropy:           124.9793832
  heat_capacity:      90.3526339
  energy:             36.2413627

- temperature:       340.0000000
  free_energy:        -6.2652064
  entropy:           127.6841670
  heat_capacity:      90.8503780
  energy:             37.1474103

- temperature:       350.0000000
  free_energy:        -7.5553020
  entropy:           130.3244236
  heat_capacity:      91.3109002
  energy:             38.0582462

- temperature:       360.0000000
  free_energy:        -8.8714886
  entropy:           132.9027905
  heat_capacity:      91.7376981
  energy:             38.9735160

- temperature:       370.0000000
  free_energy:       -10.2131599
  entropy:           135.4217787
  heat_capacity:      92.1338834
  energy:             39.8928982

- temperature:       380.0000000
  free_energy:       -11.5797342
  entropy:           137.8837766
  heat_capacity:      92.5022297
  energy:             40.8161009

- temperature:       390.0000000
  free_energy:       -12.9706531
  entropy:           140.2910547
  heat_capacity:      92.8452139
  energy:             41.7428583

- temperature:       400.0000000
  free_energy:       -14.3853801
  entropy:           142.6457704
  heat_capacity:      93.1650517
  energy:             42.6729280

- temperature:       410.0000000
  free_energy:       -15.8234001
  entropy:           144.9499729
  heat_capacity:      93.4637291
  energy:             43.6060888

- temperature:       420.0000000
  free_energy:       -17.2842177
  entropy:           147.2056089
  heat_capacity:      93.7430291
  energy:             44.5421380

- temperature:       430.0000000
  free_energy:       -18.7673566
  entropy:           149.4145273
  heat_capacity:      94.0045558
  energy:             45.4808902

- temperature:       440.0000000
  free_energy:       -20.2723584
  entropy:           151.5784844
  heat_capacity:      94.2497545
  energy:             46.4221747

- temperature:       450.0000000
  free_energy:       -21.7987820
  entropy:           153.6991492
  heat_capacity:      94.4799297
  energy:             47.3658352

- temperature:       460.0000000
  free_energy:       -23.3462024
  entropy:           155.7781078
  heat_capacity:      94.6962611
  energy:             48.3117272

- temperature:       470.0000000
  free_energy:       -24.9142101
  entropy:           157.8168680
  heat_capacity:      94.8998171
  energy:             49.2597178

- temperature:       480.0000000
  free_energy:       -26.5024105
  entropy:           159.8168640
  heat_capacity:      95.0915670
  energy:             50.2096842

- temperature:       490.0000000
  free_energy:       -28.1104228
  entropy:           161.7794602
  heat_capacity:      95.2723915
  energy:             51.1615128

- temperature:       500.0000000
  free_energy:       -29.7378794
  entropy:           163.7059554
  heat_capacity:      95.4430922
  energy:             52.1150983

- temperature:       510.0000000
  free_energy:       -31.3844257
  entropy:           165.5975862
  heat_capacity:      95.6043996
  energy:             53.0703433

- temperature:       520.0000000
  free_energy:       -33.0497188
  entropy:           167.4555309
  heat_capacity:      95.7569806
  energy:             54.0271572

- temperature:       530.0000000
  free_energy:       -34.7334277
  entropy:           169.2809124
  heat_capacity:      95.9014448
  energy:             54.9854559

- temperature:       540.0000000
  free_energy:       -36.4352321
  entropy:           171.0748019
  heat_capacity:      96.0383503
  energy:             55.9451609

- temperature:       550.0000000
  free_energy:       -38.1548222
  entropy:           172.8382211
  heat_capacity:      96.1682085
  energy:             56.9061994

- temperature:       560.0000000
  free_energy:       -39.8918982
  entropy:           174.5721453
  heat_capacity:      96.2914892
  energy:             57.8685032

- temperature:       570.0000000
  free_energy:       -41.6461699
  entropy:           176.2775063
  heat_capacity:      96.4086240
  energy:             58.8320087

- temperature:       580.0000000
  free_energy:       -43.4173561
  entropy:           177.9551941
  heat_capacity:      96.5200099
  energy:             59.7966565

- temperature:       590.0000000
  free_energy:       -45.2051844
  entropy:           179.6060599
  heat_capacity:      96.6260132
  energy:             60.7623909

- temperature:       600.0000000
  free_energy:       -47.0093906
  entropy:           181.2309176
  heat_capacity:      96.7269713
  energy:             61.7291599

- temperature:       610.0000000
  free_energy:       -48.8297186
  entropy:           182.8305463
  heat_capacity:      96.8231962
  energy:             62.6969146

- temperature:       620.0000000
  free_energy:       -50.6659199
  entropy:           184.4056919
  heat_capacity:      96.9149764
  energy:             63.6656090

- temperature:       630.0000000
  free_energy:       -52.5177533
  entropy:           185.9570690
  heat_capacity:      97.0025787
  energy:             64.6352002

- temperature:       640.0000000
  free_energy:       -54.3849844
  entropy:           187.4853623
  heat_capacity:      97.0862507
  energy:             65.6056475

- temperature:       650.0000000
  free_energy:       -56.2673858
  entropy:           188.9912287
  heat_capacity:      97.1662219
  energy:             66.5769129

- temperature:       660.0000000
  free_energy:       -58.1647363
  entropy:           190.4752979
  heat_capacity:      97.2427054
  energy:             67.5489603

- temperature:       670.0000000
  free_energy:       -60.0768211
  entropy:           191.9381748
  heat_capacity:      97.3158996
  energy:             68.5217560

- temperature:       680.0000000
  free_energy:       -62.0034311
  entropy:           193.3804398
  heat_capacity:      97.3859887
  energy:             69.4952680

- temperature:       690.0000000
  free_energy:       -63.9443630
  entropy:           194.8026508
  heat_capacity:      97.4531447
  energy:             70.4694660

- temperature:       700.0000000
  free_energy:       -65.8994190
  entropy:           196.2053438
  heat_capacity:      97.5175276
  energy:             71.4443216

- temperature:       710.0000000
  free_energy:       -67.8684066
  entropy:           197.5890344
  heat_capacity:      97.5792869
  energy:             72.4198078

- temperature:       720.0000000
  free_energy:       -69.8511380
  entropy:           198.9542182
  heat_capacity:      97.6385623
  energy:             73.3958991

- temperature:       730.0000000
  free_energy:       -71.8474308
  entropy:           200.3013727
  heat_capacity:      97.6954842
  energy:             74.3725712

- temperature:       740.0000000
  free_energy:       -73.8571069
  entropy:           201.6309571
  heat_capacity:      97.7501749
  energy:             75.3498013

- temperature:       750.0000000
  free_energy:       -75.8799929
  entropy:           202.9434141
  heat_capacity:      97.8027485
  energy:             76.3275677

- temperature:       760.0000000
  free_energy:       -77.9159195
  entropy:           204.2391699
  heat_capacity:      97.8533123
  energy:             77.3058496

- temperature:       770.0000000
  free_energy:       -79.9647220
  entropy:           205.5186358
  heat_capacity:      97.9019668
  energy:             78.2846276

- temperature:       780.0000000
  free_energy:       -82.0262393
  entropy:           206.7822079
  heat_capacity:      97.9488063
  energy:             79.2638829

- temperature:       790.0000000
  free_energy:       -84.1003144
  entropy:           208.0302688
  heat_capacity:      97.9939195
  energy:             80.2435979

- temperature:       800.0000000
  free_energy:       -86.1867942
  entropy:           209.2631875
  heat_capacity:      98.0373897
  energy:             81.2237558

- temperature:       810.0000000
  free_energy:       -88.2855289
  entropy:           210.4813203
  heat_capacity:      98.0792952
  energy:             82.2043405

- temperature:       820.0000000
  free_energy:       -90.3963725
  entropy:           211.6850112
  heat_capacity:      98.1197099
  energy:             83.1853367

- temperature:       830.0000000
  free_energy:       -92.5191821
  entropy:           212.8745928
  heat_capacity:      98.1587032
  energy:             84.1667300

- temperature:       840.0000000
  free_energy:       -94.6538184
  entropy:           214.0503865
  heat_capacity:      98.1963407
  energy:             85.1485063

- temperature:       850.0000000
  free_energy:       -96.8001449
  entropy:           215.2127028
  heat_capacity:      98.2326842
  energy:             86.1306525

- temperature:       860.0000000
  free_energy:       -98.9580285
  entropy:           216.3618423
  heat_capacity:      98.2677921
  energy:             87.1131559

- temperature:       870.0000000
  free_energy:      -101.1273388
  entropy:           217.4980956
  heat_capacity:      98.3017194
  energy:             88.0960044

- temperature:       880.0000000
  free_energy:      -103.3079484
  entropy:           218.6217442
  heat_capacity:      98.3345182
  energy:             89.0791865

- temperature:       890.0000000
  free_energy:      -105.4997326
  entropy:           219.7330604
  heat_capacity:      98.3662379
  energy:             90.0626911

- temperature:       900.0000000
  free_energy:      -107.7025694
  entropy:           220.8323080
  heat_capacity:      98.3969250
  energy:             91.0465078

- temperature:       910.0000000
  free_energy:      -109.9163394
  entropy:           221.9197425
  heat_capacity:      98.4266237
  energy:             92.0306263

- temperature:       920.0000000
  free_energy:      -112.1409257
  entropy:           222.9956117
  heat_capacity:      98.4553757
  energy:             93.0150371

- temperature:       930.0000000
  free_energy:      -114.3762138
  entropy:           224.0601556
  heat_capacity:      98.4832208
  energy:             93.9997308

- temperature:       940.0000000
  free_energy:      -116.6220918
  entropy:           225.1136068
  heat_capacity:      98.5101965
  energy:             94.9846986

- temperature:       950.0000000
  free_energy:      -118.8784498
  entropy:           226.1561913
  heat_capacity:      98.5363384
  energy:             95.9699320

- temperature:       960.0000000
  free_energy:      -121.1451801
  entropy:           227.1881280
  heat_capacity:      98.5616805
  energy:             96.9554227

- temperature:       970.0000000
  free_energy:      -123.4221775
  entropy:           228.2096295
  heat_capacity:      98.5862549
  energy:             97.9411630

- temperature:       980.0000000
  free_energy:      -125.7093386
  entropy:           229.2209020
  heat_capacity:      98.6100923
  energy:             98.9271454

- temperature:       990.0000000
  free_energy:      -128.0065621
  entropy:           230.2221461
  heat_capacity:      98.6332216
  energy:             99.9133625

- temperature:      1000.0000000
  free_energy:      -130.3137488
  entropy:           231.2135563
  heat_capacity:      98.6556705
  energy:            100.8998075
