# Sigma = 0.100000
       -0.7823010769        0.0000000000
       -0.7171552318        0.0000000000
       -0.6520093867        0.0000000000
       -0.5868635416        0.0000000000
       -0.5217176965        0.0000000000
       -0.4565718515        0.0000000000
       -0.3914260064        0.0000000001
       -0.3262801613        0.0000000029
       -0.2611343162        0.0000000809
       -0.1959884711        0.0000014849
       -0.1308426260        0.0000178499
       -0.0656967809        0.0001408222
       -0.0005509358        0.0007325954
        0.0645949093        0.0025423410
        0.1297407544        0.0060482704
        0.1948865995        0.0104644331
        0.2600324446        0.0146407010
        0.3251782897        0.0190157856
        0.3903241348        0.0256142739
        0.4554699799        0.0363253037
        0.5206158250        0.0500760954
        0.5857616701        0.0627408834
        0.6509075152        0.0721953999
        0.7160533603        0.0817098328
        0.7811992054        0.0974080573
        0.8463450505        0.1210188845
        0.9114908956        0.1458216421
        0.9766367407        0.1659430481
        1.0417825857        0.1851539636
        1.1069284308        0.2104113151
        1.1720742759        0.2446706777
        1.2372201210        0.2857855055
        1.3023659661        0.3288749704
        1.3675118112        0.3733439724
        1.4326576563        0.4256453363
        1.4978035014        0.4936789454
        1.5629493465        0.5851408866
        1.6280951916        0.7118960940
        1.6932410367        0.8833892231
        1.7583868818        1.0891242773
        1.8235327269        1.3036862381
        1.8886785720        1.5288373869
        1.9538244171        1.8217183493
        2.0189702622        2.2415365577
        2.0841161073        2.7325023698
        2.1492619524        3.1109919074
        2.2144077975        3.2555603754
        2.2795536426        3.2372878789
        2.3446994877        3.1857068603
        2.4098453328        3.1376519262
        2.4749911779        3.0575421891
        2.5401370229        2.9157428775
        2.6052828680        2.7273189411
        2.6704287131        2.5327815422
        2.7355745582        2.3551995521
        2.8007204033        2.1950057058
        2.8658662484        2.0493965192
        2.9310120935        1.9213270348
        2.9961579386        1.8223679682
        3.0613037837        1.7617781973
        3.1264496288        1.7225424405
        3.1915954739        1.6501283186
        3.2567413190        1.4657054176
        3.3218871641        1.1306523045
        3.3870330092        0.7238574129
        3.4521788543        0.3895925635
        3.5173246994        0.1991842981
        3.5824705445        0.1232115754
        3.6476163896        0.1063823817
        3.7127622347        0.1123710208
        3.7779080798        0.1230732380
        3.8430539249        0.1325304131
        3.9081997700        0.1402200086
        3.9733456151        0.1462696369
        4.0384914601        0.1514604440
        4.1036373052        0.1550651186
        4.1687831503        0.1586822418
        4.2339289954        0.1705505874
        4.2990748405        0.1911516730
        4.3642206856        0.2076870240
        4.4293665307        0.2147040820
        4.4945123758        0.2200362183
        4.5596582209        0.2305739150
        4.6248040660        0.2475425798
        4.6899499111        0.2679777070
        4.7550957562        0.2867009761
        4.8202416013        0.3020101189
        4.8853874464        0.3198592626
        4.9505332915        0.3457441813
        5.0156791366        0.3736292634
        5.0808249817        0.3977692464
        5.1459708268        0.4257797410
        5.2111166719        0.4651609437
        5.2762625170        0.5100286370
        5.3414083621        0.5554857151
        5.4065542072        0.6118577007
        5.4717000523        0.6887714823
        5.5368458973        0.7838085170
        5.6019917424        0.8934774091
        5.6671375875        1.0101744197
        5.7322834326        1.1205560333
        5.7974292777        1.2299888563
        5.8625751228        1.3560858240
        5.9277209679        1.4922634116
        5.9928668130        1.6191005590
        6.0580126581        1.7380955301
        6.1231585032        1.8421584962
        6.1883043483        1.8705936675
        6.2534501934        1.7516299479
        6.3185960385        1.4830964143
        6.3837418836        1.1303789748
        6.4488877287        0.7631837187
        6.5140335738        0.4370430458
        6.5791794189        0.2004797413
        6.6443252640        0.0699505620
        6.7094711091        0.0178389766
        6.7746169542        0.0032285783
        6.8397627993        0.0004058107
        6.9049086444        0.0000348717
        6.9700544895        0.0000020256
        7.0352003345        0.0000000789
        7.1003461796        0.0000000020
        7.1654920247        0.0000000000
        7.2306378698        0.0000000000
        7.2957837149        0.0000000000
        7.3609295600        0.0000000000
        7.4260754051        0.0000000000
        7.4912212502        0.0000000000
        7.5563670953        0.0000000000
        7.6215129404        0.0000000000
        7.6866587855        0.0000000000
        7.7518046306        0.0000000000
        7.8169504757        0.0000000000
        7.8820963208        0.0000000000
        7.9472421659        0.0000000000
        8.0123880110        0.0000000000
        8.0775338561        0.0000000000
        8.1426797012        0.0000000000
        8.2078255463        0.0000000000
        8.2729713914        0.0000000000
        8.3381172365        0.0000000000
        8.4032630816        0.0000000000
        8.4684089267        0.0000000000
        8.5335547717        0.0000000000
        8.5987006168        0.0000000010
        8.6638464619        0.0000000367
        8.7289923070        0.0000009075
        8.7941381521        0.0000152817
        8.8592839972        0.0001776000
        8.9244298423        0.0014485896
        8.9895756874        0.0084494414
        9.0547215325        0.0359509334
        9.1198673776        0.1140635321
        9.1850132227        0.2777302486
        9.2501590678        0.5415275795
        9.3153049129        0.8985908160
        9.3804507580        1.3650749193
        9.4455966031        2.0180942492
        9.5107424482        2.9425150808
        9.5758882933        4.0697139285
        9.6410341384        5.1170383720
        9.7061799835        5.8027295389
        9.7713258286        6.0089609177
        9.8364716737        5.7301755660
        9.9016175188        5.1175060655
        9.9667633639        4.4602493847
       10.0319092089        3.9253120530
       10.0970550540        3.4786045113
       10.1622008991        3.0569640346
       10.2273467442        2.6428256301
       10.2924925893        2.2433618675
       10.3576384344        1.8956787299
       10.4227842795        1.6644313250
       10.4879301246        1.6414600378
       10.5530759697        1.9428992504
       10.6182218148        2.5626250702
       10.6833676599        3.1664896655
       10.7485135050        3.3115250513
       10.8136593501        2.9987164042
       10.8788051952        2.6641593962
       10.9439510403        2.5657823478
       11.0090968854        2.5047133795
       11.0742427305        2.1785070039
       11.1393885756        1.5741815422
       11.2045344207        0.9239981411
       11.2696802658        0.4344029126
       11.3348261109        0.1596224930
       11.3999719560        0.0443332653
       11.4651178011        0.0089962738
       11.5302636461        0.0012962408
       11.5954094912        0.0001297675
       11.6605553363        0.0000088858
       11.7257011814        0.0000004116
       11.7908470265        0.0000000128
       11.8559928716        0.0000000003
       11.9211387167        0.0000000000
       11.9862845618        0.0000000000
       12.0514304069        0.0000000000
       12.1165762520        0.0000000000
       12.1817220971        0.0000000000
       12.2468679422        0.0000000000
