   9   9   0   0
  0.1263398E+02  0.4916558E-09  0.4916558E-09  0.5431625E-09  0.5000000E-15
   1.0000000000000000E-004
  CAR 
 unknown system                          
     13.59213118    -20.35094587  301      1.06147857      1.00000000
    -20.351  0.0000E+00  0.0000E+00
    -20.238  0.0000E+00  0.0000E+00
    -20.125  0.0000E+00  0.0000E+00
    -20.012  0.0000E+00  0.0000E+00
    -19.898  0.0000E+00  0.0000E+00
    -19.785  0.0000E+00  0.0000E+00
    -19.672  0.0000E+00  0.0000E+00
    -19.559  0.0000E+00  0.0000E+00
    -19.446  0.0000E+00  0.0000E+00
    -19.333  0.0000E+00  0.0000E+00
    -19.220  0.0000E+00  0.0000E+00
    -19.106  0.0000E+00  0.0000E+00
    -18.993  0.0000E+00  0.0000E+00
    -18.880  0.0000E+00  0.0000E+00
    -18.767  0.0000E+00  0.0000E+00
    -18.654  0.0000E+00  0.0000E+00
    -18.541  0.0000E+00  0.0000E+00
    -18.428  0.0000E+00  0.0000E+00
    -18.314  0.1038E+00  0.1266E-02
    -18.201  0.1409E+01  0.8248E-01
    -18.088  0.2151E+01  0.2801E+00
    -17.975  0.3626E+01  0.5993E+00
    -17.862  0.8381E+01  0.1253E+01
    -17.749  0.1757E+01  0.2017E+01
    -17.635  0.8225E+00  0.2082E+01
    -17.522  0.1560E+01  0.2210E+01
    -17.409  0.8337E+01  0.2646E+01
    -17.296  0.3784E+01  0.3619E+01
    -17.183  0.1225E+01  0.3839E+01
    -17.070  0.6458E+00  0.3944E+01
    -16.957  0.9945E+00  0.4011E+01
    -16.843  0.6186E+01  0.4291E+01
    -16.730  0.5740E+01  0.5304E+01
    -16.617  0.2170E+01  0.5625E+01
    -16.504  0.1338E+01  0.5816E+01
    -16.391  0.8925E+00  0.5947E+01
    -16.278  0.2541E+01  0.5999E+01
    -16.165  0.7360E+02  0.1174E+02
    -16.051  0.3535E+00  0.1200E+02
    -15.938  0.0000E+00  0.1200E+02
    -15.825  0.0000E+00  0.1200E+02
    -15.712  0.0000E+00  0.1200E+02
    -15.599  0.0000E+00  0.1200E+02
    -15.486  0.0000E+00  0.1200E+02
    -15.373  0.0000E+00  0.1200E+02
    -15.259  0.0000E+00  0.1200E+02
    -15.146  0.0000E+00  0.1200E+02
    -15.033  0.0000E+00  0.1200E+02
    -14.920  0.0000E+00  0.1200E+02
    -14.807  0.0000E+00  0.1200E+02
    -14.694  0.0000E+00  0.1200E+02
    -14.581  0.0000E+00  0.1200E+02
    -14.467  0.0000E+00  0.1200E+02
    -14.354  0.0000E+00  0.1200E+02
    -14.241  0.0000E+00  0.1200E+02
    -14.128  0.0000E+00  0.1200E+02
    -14.015  0.0000E+00  0.1200E+02
    -13.902  0.0000E+00  0.1200E+02
    -13.789  0.0000E+00  0.1200E+02
    -13.675  0.0000E+00  0.1200E+02
    -13.562  0.0000E+00  0.1200E+02
    -13.449  0.0000E+00  0.1200E+02
    -13.336  0.0000E+00  0.1200E+02
    -13.223  0.0000E+00  0.1200E+02
    -13.110  0.0000E+00  0.1200E+02
    -12.997  0.0000E+00  0.1200E+02
    -12.883  0.0000E+00  0.1200E+02
    -12.770  0.0000E+00  0.1200E+02
    -12.657  0.0000E+00  0.1200E+02
    -12.544  0.0000E+00  0.1200E+02
    -12.431  0.0000E+00  0.1200E+02
    -12.318  0.0000E+00  0.1200E+02
    -12.205  0.0000E+00  0.1200E+02
    -12.091  0.0000E+00  0.1200E+02
    -11.978  0.0000E+00  0.1200E+02
    -11.865  0.0000E+00  0.1200E+02
    -11.752  0.0000E+00  0.1200E+02
    -11.639  0.0000E+00  0.1200E+02
    -11.526  0.0000E+00  0.1200E+02
    -11.413  0.0000E+00  0.1200E+02
    -11.299  0.0000E+00  0.1200E+02
    -11.186  0.0000E+00  0.1200E+02
    -11.073  0.0000E+00  0.1200E+02
    -10.960  0.0000E+00  0.1200E+02
    -10.847  0.0000E+00  0.1200E+02
    -10.734  0.0000E+00  0.1200E+02
    -10.621  0.0000E+00  0.1200E+02
    -10.507  0.0000E+00  0.1200E+02
    -10.394  0.0000E+00  0.1200E+02
    -10.281  0.0000E+00  0.1200E+02
    -10.168  0.0000E+00  0.1200E+02
    -10.055  0.0000E+00  0.1200E+02
     -9.942  0.0000E+00  0.1200E+02
     -9.829  0.0000E+00  0.1200E+02
     -9.715  0.0000E+00  0.1200E+02
     -9.602  0.0000E+00  0.1200E+02
     -9.489  0.0000E+00  0.1200E+02
     -9.376  0.0000E+00  0.1200E+02
     -9.263  0.0000E+00  0.1200E+02
     -9.150  0.0000E+00  0.1200E+02
     -9.037  0.0000E+00  0.1200E+02
     -8.923  0.0000E+00  0.1200E+02
     -8.810  0.0000E+00  0.1200E+02
     -8.697  0.0000E+00  0.1200E+02
     -8.584  0.0000E+00  0.1200E+02
     -8.471  0.0000E+00  0.1200E+02
     -8.358  0.0000E+00  0.1200E+02
     -8.245  0.1381E-02  0.1200E+02
     -8.131  0.8902E-01  0.1200E+02
     -8.018  0.3131E+00  0.1203E+02
     -7.905  0.6305E+00  0.1208E+02
     -7.792  0.8087E+00  0.1216E+02
     -7.679  0.1038E+01  0.1226E+02
     -7.566  0.1467E+01  0.1240E+02
     -7.453  0.2039E+01  0.1260E+02
     -7.339  0.7633E+01  0.1300E+02
     -7.226  0.2774E+01  0.1377E+02
     -7.113  0.8533E+00  0.1393E+02
     -7.000  0.3680E+00  0.1399E+02
     -6.887  0.1755E+00  0.1402E+02
     -6.774  0.3066E+00  0.1404E+02
     -6.661  0.4739E+00  0.1409E+02
     -6.547  0.6775E+00  0.1415E+02
     -6.434  0.1006E+01  0.1424E+02
     -6.321  0.2603E+01  0.1443E+02
     -6.208  0.5561E+01  0.1491E+02
     -6.095  0.3851E+01  0.1548E+02
     -5.982  0.1173E+01  0.1573E+02
     -5.869  0.7044E+00  0.1583E+02
     -5.755  0.5080E+00  0.1590E+02
     -5.642  0.3389E+00  0.1595E+02
     -5.529  0.1971E+00  0.1598E+02
     -5.416  0.1379E+01  0.1601E+02
     -5.303  0.3410E+01  0.1632E+02
     -5.190  0.3596E+01  0.1674E+02
     -5.077  0.2611E+01  0.1710E+02
     -4.963  0.2200E+01  0.1737E+02
     -4.850  0.1732E+01  0.1759E+02
     -4.737  0.1144E+01  0.1775E+02
     -4.624  0.8240E+00  0.1787E+02
     -4.511  0.5694E+00  0.1794E+02
     -4.398  0.4862E+01  0.1812E+02
     -4.285  0.1773E+02  0.1973E+02
     -4.171  0.7498E+01  0.2073E+02
     -4.058  0.7481E+01  0.2146E+02
     -3.945  0.3072E+01  0.2204E+02
     -3.832  0.7864E+01  0.2234E+02
     -3.719  0.6767E+01  0.2342E+02
     -3.606  0.2277E+01  0.2388E+02
     -3.493  0.2392E+00  0.2400E+02
     -3.379  0.0000E+00  0.2400E+02
     -3.266  0.0000E+00  0.2400E+02
     -3.153  0.0000E+00  0.2400E+02
     -3.040  0.0000E+00  0.2400E+02
     -2.927  0.0000E+00  0.2400E+02
     -2.814  0.0000E+00  0.2400E+02
     -2.701  0.0000E+00  0.2400E+02
     -2.587  0.0000E+00  0.2400E+02
     -2.474  0.0000E+00  0.2400E+02
     -2.361  0.0000E+00  0.2400E+02
     -2.248  0.0000E+00  0.2400E+02
     -2.135  0.5923E+01  0.2414E+02
     -2.022  0.9939E+01  0.2558E+02
     -1.909  0.6473E+01  0.2629E+02
     -1.795  0.8658E+01  0.2719E+02
     -1.682  0.4634E+01  0.2789E+02
     -1.569  0.1156E+02  0.2845E+02
     -1.456  0.6337E+01  0.2966E+02
     -1.343  0.3758E+00  0.3000E+02
     -1.230  0.1095E+02  0.3038E+02
     -1.117  0.6131E+01  0.3166E+02
     -1.003  0.4131E+01  0.3206E+02
     -0.890  0.1350E+02  0.3367E+02
     -0.777  0.6726E+00  0.3393E+02
     -0.664  0.8299E+01  0.3444E+02
     -0.551  0.1315E+02  0.3539E+02
     -0.438  0.7552E+01  0.3643E+02
     -0.325  0.8609E+01  0.3757E+02
     -0.211  0.7109E+01  0.3819E+02
     -0.098  0.1293E+02  0.3942E+02
      0.015  0.6019E+01  0.4019E+02
      0.128  0.1279E+02  0.4174E+02
      0.241  0.0000E+00  0.4200E+02
      0.354  0.1228E+02  0.4304E+02
      0.467  0.3568E+01  0.4379E+02
      0.581  0.5394E+01  0.4427E+02
      0.694  0.8510E+01  0.4503E+02
      0.807  0.6613E+01  0.4611E+02
      0.920  0.1111E+02  0.4681E+02
      1.033  0.3292E+01  0.4799E+02
      1.146  0.0000E+00  0.4800E+02
      1.259  0.0000E+00  0.4800E+02
      1.373  0.0000E+00  0.4800E+02
      1.486  0.0000E+00  0.4800E+02
      1.599  0.0000E+00  0.4800E+02
      1.712  0.0000E+00  0.4800E+02
      1.825  0.0000E+00  0.4800E+02
      1.938  0.0000E+00  0.4800E+02
      2.051  0.0000E+00  0.4800E+02
      2.165  0.0000E+00  0.4800E+02
      2.278  0.0000E+00  0.4800E+02
      2.391  0.0000E+00  0.4800E+02
      2.504  0.0000E+00  0.4800E+02
      2.617  0.0000E+00  0.4800E+02
      2.730  0.0000E+00  0.4800E+02
      2.843  0.0000E+00  0.4800E+02
      2.957  0.0000E+00  0.4800E+02
      3.070  0.0000E+00  0.4800E+02
      3.183  0.0000E+00  0.4800E+02
      3.296  0.0000E+00  0.4800E+02
      3.409  0.0000E+00  0.4800E+02
      3.522  0.0000E+00  0.4800E+02
      3.635  0.0000E+00  0.4800E+02
      3.749  0.0000E+00  0.4800E+02
      3.862  0.0000E+00  0.4800E+02
      3.975  0.0000E+00  0.4800E+02
      4.088  0.0000E+00  0.4800E+02
      4.201  0.0000E+00  0.4800E+02
      4.314  0.0000E+00  0.4800E+02
      4.428  0.0000E+00  0.4800E+02
      4.541  0.0000E+00  0.4800E+02
      4.654  0.0000E+00  0.4800E+02
      4.767  0.0000E+00  0.4800E+02
      4.880  0.0000E+00  0.4800E+02
      4.993  0.0000E+00  0.4800E+02
      5.106  0.0000E+00  0.4800E+02
      5.220  0.0000E+00  0.4800E+02
      5.333  0.0000E+00  0.4800E+02
      5.446  0.0000E+00  0.4800E+02
      5.559  0.0000E+00  0.4800E+02
      5.672  0.0000E+00  0.4800E+02
      5.785  0.0000E+00  0.4800E+02
      5.898  0.0000E+00  0.4800E+02
      6.012  0.0000E+00  0.4800E+02
      6.125  0.0000E+00  0.4800E+02
      6.238  0.0000E+00  0.4800E+02
      6.351  0.0000E+00  0.4800E+02
      6.464  0.0000E+00  0.4800E+02
      6.577  0.0000E+00  0.4800E+02
      6.690  0.0000E+00  0.4800E+02
      6.804  0.0000E+00  0.4800E+02
      6.917  0.0000E+00  0.4800E+02
      7.030  0.4671E-03  0.4800E+02
      7.143  0.1213E-01  0.4800E+02
      7.256  0.3945E-01  0.4800E+02
      7.369  0.8244E-01  0.4801E+02
      7.482  0.1411E+00  0.4802E+02
      7.596  0.2154E+00  0.4804E+02
      7.709  0.2897E+00  0.4807E+02
      7.822  0.3371E+00  0.4811E+02
      7.935  0.3741E+00  0.4815E+02
      8.048  0.4007E+00  0.4819E+02
      8.161  0.4421E+00  0.4824E+02
      8.274  0.4989E+00  0.4829E+02
      8.388  0.5590E+00  0.4835E+02
      8.501  0.6226E+00  0.4842E+02
      8.614  0.6937E+00  0.4849E+02
      8.727  0.7826E+00  0.4858E+02
      8.840  0.8896E+00  0.4867E+02
      8.953  0.1112E+01  0.4878E+02
      9.066  0.1329E+01  0.4892E+02
      9.180  0.1502E+01  0.4908E+02
      9.293  0.1607E+01  0.4926E+02
      9.406  0.1644E+01  0.4944E+02
      9.519  0.1624E+01  0.4963E+02
      9.632  0.1674E+01  0.4982E+02
      9.745  0.1769E+01  0.5002E+02
      9.858  0.9971E+00  0.5017E+02
      9.972  0.7331E+00  0.5026E+02
     10.085  0.1600E+01  0.5037E+02
     10.198  0.8176E+01  0.5081E+02
     10.311  0.8132E+01  0.5185E+02
     10.424  0.4177E+01  0.5236E+02
     10.537  0.7303E+01  0.5293E+02
     10.650  0.7697E+01  0.5392E+02
     10.764  0.3033E+01  0.5440E+02
     10.877  0.3776E+01  0.5473E+02
     10.990  0.8213E+01  0.5547E+02
     11.103  0.3500E+01  0.5623E+02
     11.216  0.5870E+01  0.5664E+02
     11.329  0.5912E+01  0.5744E+02
     11.442  0.2271E+01  0.5784E+02
     11.556  0.4359E+00  0.5799E+02
     11.669  0.0000E+00  0.5800E+02
     11.782  0.0000E+00  0.5800E+02
     11.895  0.0000E+00  0.5800E+02
     12.008  0.0000E+00  0.5800E+02
     12.121  0.0000E+00  0.5800E+02
     12.234  0.0000E+00  0.5800E+02
     12.348  0.0000E+00  0.5800E+02
     12.461  0.0000E+00  0.5800E+02
     12.574  0.0000E+00  0.5800E+02
     12.687  0.0000E+00  0.5800E+02
     12.800  0.0000E+00  0.5800E+02
     12.913  0.0000E+00  0.5800E+02
     13.026  0.0000E+00  0.5800E+02
     13.140  0.0000E+00  0.5800E+02
     13.253  0.0000E+00  0.5800E+02
     13.366  0.0000E+00  0.5800E+02
     13.479  0.0000E+00  0.5800E+02
     13.592  0.0000E+00  0.5800E+02
