mesh: [    16,    16,    16 ]
nqpoint: 576    
reciprocal_lattice:
- [   0.27350708,  -0.15790939,   0.00000000 ] # a*
- [   0.27350708,   0.15790939,   0.00000000 ] # b*
- [   0.00000000,   0.00000000,   0.16681352 ] # c*
natom:   4      
lattice:
- [     1.828106212527642,    -3.166372841730184,     0.000000000000000 ] # a
- [     1.828106212527642,     3.166372841730184,     0.000000000000000 ] # b
- [     0.000000000000000,     0.000000000000000,     5.994717791182844 ] # c
points:
- symbol: Zn # 1
  coordinates: [  0.333333333333336,  0.666666666666664,  0.000607866263464 ]
  mass: 65.380000
- symbol: Zn # 2
  coordinates: [  0.666666666666664,  0.333333333333336,  0.500607866263464 ]
  mass: 65.380000
- symbol: S # 3
  coordinates: [  0.333333333333336,  0.666666666666664,  0.374392133736536 ]
  mass: 32.065000
- symbol: S # 4
  coordinates: [  0.666666666666664,  0.333333333333336,  0.874392133736536 ]
  mass: 32.065000

phonon:
- q-position: [    0.0312500,    0.0312500,    0.0312500 ]
  distance_from_gamma:  0.017871373
  weight: 4    
  band:
  - # 1
    frequency:     0.3140983983
  - # 2
    frequency:     0.3668142343
  - # 3
    frequency:     1.0072294708
  - # 4
    frequency:     1.5568479921
  - # 5
    frequency:     1.7039435544
  - # 6
    frequency:     6.4348305166
  - # 7
    frequency:    10.2150519651
  - # 8
    frequency:    10.2161198026
  - # 9
    frequency:    10.2812362028
  - # 10
    frequency:    10.5544810810
  - # 11
    frequency:    10.5653246105
  - # 12
    frequency:    12.0026083119

- q-position: [    0.0937500,    0.0312500,    0.0312500 ]
  distance_from_gamma:  0.035964205
  weight: 8    
  band:
  - # 1
    frequency:     0.6266108501
  - # 2
    frequency:     0.7489216690
  - # 3
    frequency:     1.5803934560
  - # 4
    frequency:     1.9956111371
  - # 5
    frequency:     2.2154786938
  - # 6
    frequency:     6.4002080662
  - # 7
    frequency:    10.2710171621
  - # 8
    frequency:    10.2871804723
  - # 9
    frequency:    10.4865488905
  - # 10
    frequency:    10.6002465552
  - # 11
    frequency:    10.6530190377
  - # 12
    frequency:    12.0298743436

- q-position: [    0.1562500,    0.0312500,    0.0312500 ]
  distance_from_gamma:  0.055196853
  weight: 8    
  band:
  - # 1
    frequency:     0.9331428064
  - # 2
    frequency:     1.1708330020
  - # 3
    frequency:     1.7430925754
  - # 4
    frequency:     2.6486066757
  - # 5
    frequency:     3.0706054551
  - # 6
    frequency:     6.3781451086
  - # 7
    frequency:    10.3662745533
  - # 8
    frequency:    10.3895741712
  - # 9
    frequency:    10.6384767516
  - # 10
    frequency:    10.7436075075
  - # 11
    frequency:    10.8630439422
  - # 12
    frequency:    12.0784105903

- q-position: [    0.2187500,    0.0312500,    0.0312500 ]
  distance_from_gamma:  0.074693987
  weight: 8    
  band:
  - # 1
    frequency:     1.2190338130
  - # 2
    frequency:     1.6041138231
  - # 3
    frequency:     1.8852481417
  - # 4
    frequency:     3.0978111108
  - # 5
    frequency:     3.9750983865
  - # 6
    frequency:     6.4226908986
  - # 7
    frequency:    10.4861943189
  - # 8
    frequency:    10.4993259984
  - # 9
    frequency:    10.7026553392
  - # 10
    frequency:    10.9040740705
  - # 11
    frequency:    11.1854435507
  - # 12
    frequency:    12.1425575435

- q-position: [    0.2812500,    0.0312500,    0.0312500 ]
  distance_from_gamma:  0.094291681
  weight: 8    
  band:
  - # 1
    frequency:     1.4501616555
  - # 2
    frequency:     2.0040199916
  - # 3
    frequency:     2.0269670558
  - # 4
    frequency:     3.3387981897
  - # 5
    frequency:     4.7786111430
  - # 6
    frequency:     6.5594933885
  - # 7
    frequency:    10.5664314791
  - # 8
    frequency:    10.6429461948
  - # 9
    frequency:    10.7662064502
  - # 10
    frequency:    11.0541001021
  - # 11
    frequency:    11.4595209130
  - # 12
    frequency:    12.2107658729

- q-position: [    0.3437500,    0.0312500,    0.0312500 ]
  distance_from_gamma:  0.113938058
  weight: 8    
  band:
  - # 1
    frequency:     1.6010031948
  - # 2
    frequency:     2.1293068813
  - # 3
    frequency:     2.3809756041
  - # 4
    frequency:     3.3927351712
  - # 5
    frequency:     5.4313920098
  - # 6
    frequency:     6.7423242735
  - # 7
    frequency:    10.6149759062
  - # 8
    frequency:    10.7815593950
  - # 9
    frequency:    10.8379770220
  - # 10
    frequency:    11.1821470321
  - # 11
    frequency:    11.6309911839
  - # 12
    frequency:    12.2706626883

- q-position: [    0.4062500,    0.0312500,    0.0312500 ]
  distance_from_gamma:  0.133611645
  weight: 8    
  band:
  - # 1
    frequency:     1.6761805256
  - # 2
    frequency:     2.2198808872
  - # 3
    frequency:     2.6728271686
  - # 4
    frequency:     3.3311928923
  - # 5
    frequency:     5.8904043157
  - # 6
    frequency:     6.8879222393
  - # 7
    frequency:    10.6417047036
  - # 8
    frequency:    10.8752518300
  - # 9
    frequency:    10.9193839100
  - # 10
    frequency:    11.2765245460
  - # 11
    frequency:    11.7000124505
  - # 12
    frequency:    12.3125651207

- q-position: [    0.4687500,    0.0312500,    0.0312500 ]
  distance_from_gamma:  0.153301965
  weight: 8    
  band:
  - # 1
    frequency:     1.7012985088
  - # 2
    frequency:     2.2636512463
  - # 3
    frequency:     2.8457831902
  - # 4
    frequency:     3.2484676425
  - # 5
    frequency:     6.1045755722
  - # 6
    frequency:     6.9502008576
  - # 7
    frequency:    10.6522112952
  - # 8
    frequency:    10.9206025933
  - # 9
    frequency:    10.9637941394
  - # 10
    frequency:    11.3238285012
  - # 11
    frequency:    11.7110201269
  - # 12
    frequency:    12.3309046511

- q-position: [   -0.4687500,    0.0312500,    0.0312500 ]
  distance_from_gamma:  0.143455144
  weight: 8    
  band:
  - # 1
    frequency:     1.6934536294
  - # 2
    frequency:     2.2487132402
  - # 3
    frequency:     2.7807108559
  - # 4
    frequency:     3.2840166601
  - # 5
    frequency:     6.0315803764
  - # 6
    frequency:     6.9299208711
  - # 7
    frequency:    10.6487780455
  - # 8
    frequency:    10.9043520776
  - # 9
    frequency:    10.9489356543
  - # 10
    frequency:    11.3072967890
  - # 11
    frequency:    11.7090728958
  - # 12
    frequency:    12.3248020558

- q-position: [   -0.4062500,    0.0312500,    0.0312500 ]
  distance_from_gamma:  0.123772261
  weight: 8    
  band:
  - # 1
    frequency:     1.6465729303
  - # 2
    frequency:     2.1791736008
  - # 3
    frequency:     2.5373526533
  - # 4
    frequency:     3.3713797206
  - # 5
    frequency:     5.6880487265
  - # 6
    frequency:     6.8241401076
  - # 7
    frequency:    10.6306187936
  - # 8
    frequency:    10.8350882914
  - # 9
    frequency:    10.8793704995
  - # 10
    frequency:    11.2341842505
  - # 11
    frequency:    11.6763171282
  - # 12
    frequency:    12.2943424770

- q-position: [   -0.3437500,    0.0312500,    0.0312500 ]
  distance_from_gamma:  0.104110505
  weight: 8    
  band:
  - # 1
    frequency:     1.5361382335
  - # 2
    frequency:     2.0729366506
  - # 3
    frequency:     2.2072646796
  - # 4
    frequency:     3.3851742050
  - # 5
    frequency:     5.1264568467
  - # 6
    frequency:     6.6504690909
  - # 7
    frequency:    10.5939579777
  - # 8
    frequency:    10.7155711419
  - # 9
    frequency:    10.8004922924
  - # 10
    frequency:    11.1216944034
  - # 11
    frequency:    11.5592854022
  - # 12
    frequency:    12.2424266463

- q-position: [   -0.2812500,    0.0312500,    0.0312500 ]
  distance_from_gamma:  0.084484629
  weight: 8    
  band:
  - # 1
    frequency:     1.3435667973
  - # 2
    frequency:     1.8144407092
  - # 3
    frequency:     1.9518521754
  - # 4
    frequency:     3.2448276682
  - # 5
    frequency:     4.3930153784
  - # 6
    frequency:     6.4806959522
  - # 7
    frequency:    10.5311789066
  - # 8
    frequency:    10.5690289731
  - # 9
    frequency:    10.7339032257
  - # 10
    frequency:    10.9809422186
  - # 11
    frequency:    11.3333077135
  - # 12
    frequency:    12.1769779585

- q-position: [   -0.2187500,    0.0312500,    0.0312500 ]
  distance_from_gamma:  0.064927177
  weight: 8    
  band:
  - # 1
    frequency:     1.0806665517
  - # 2
    frequency:     1.3880953651
  - # 3
    frequency:     1.8157182829
  - # 4
    frequency:     2.8975293411
  - # 5
    frequency:     3.5312369010
  - # 6
    frequency:     6.3890921023
  - # 7
    frequency:    10.4261084934
  - # 8
    frequency:    10.4430997016
  - # 9
    frequency:    10.6714306822
  - # 10
    frequency:    10.8251544803
  - # 11
    frequency:    11.0240735932
  - # 12
    frequency:    12.1091586816

- q-position: [   -0.1562500,    0.0312500,    0.0312500 ]
  distance_from_gamma:  0.045526416
  weight: 8    
  band:
  - # 1
    frequency:     0.7808466939
  - # 2
    frequency:     0.9565662725
  - # 3
    frequency:     1.6670321916
  - # 4
    frequency:     2.3537418692
  - # 5
    frequency:     2.6131832810
  - # 6
    frequency:     6.3842550967
  - # 7
    frequency:    10.3140644689
  - # 8
    frequency:    10.3364107207
  - # 9
    frequency:    10.5924187194
  - # 10
    frequency:    10.6545742913
  - # 11
    frequency:    10.7325962021
  - # 12
    frequency:    12.0516742408

- q-position: [   -0.0937500,    0.0312500,    0.0312500 ]
  distance_from_gamma:  0.026627077
  weight: 8    
  band:
  - # 1
    frequency:     0.4705515711
  - # 2
    frequency:     0.5505955015
  - # 3
    frequency:     1.3976767057
  - # 4
    frequency:     1.6646373097
  - # 5
    frequency:     1.9180267762
  - # 6
    frequency:     6.4189841726
  - # 7
    frequency:    10.2379165718
  - # 8
    frequency:    10.2458712064
  - # 9
    frequency:    10.3690752656
  - # 10
    frequency:    10.5727220290
  - # 11
    frequency:    10.6002052821
  - # 12
    frequency:    12.0134786519

- q-position: [   -0.0312500,    0.0312500,    0.0312500 ]
  distance_from_gamma:  0.011161468
  weight: 4    
  band:
  - # 1
    frequency:     0.1945858644
  - # 2
    frequency:     0.2286932728
  - # 3
    frequency:     0.6658305907
  - # 4
    frequency:     1.5268897198
  - # 5
    frequency:     1.5846311183
  - # 6
    frequency:     6.4437639474
  - # 7
    frequency:    10.2007796192
  - # 8
    frequency:    10.2022465758
  - # 9
    frequency:    10.2357492517
  - # 10
    frequency:    10.5448206096
  - # 11
    frequency:    10.5479666732
  - # 12
    frequency:    11.9972092698

- q-position: [    0.0937500,    0.0937500,    0.0312500 ]
  distance_from_gamma:  0.051546847
  weight: 4    
  band:
  - # 1
    frequency:     1.0363997902
  - # 2
    frequency:     1.0786830336
  - # 3
    frequency:     1.6795325039
  - # 4
    frequency:     2.5641561702
  - # 5
    frequency:     2.8467734015
  - # 6
    frequency:     6.3776251648
  - # 7
    frequency:    10.3449123893
  - # 8
    frequency:    10.3938405797
  - # 9
    frequency:    10.6245889502
  - # 10
    frequency:    10.6514600498
  - # 11
    frequency:    10.8470002767
  - # 12
    frequency:    12.0656816782

- q-position: [    0.1562500,    0.0937500,    0.0312500 ]
  distance_from_gamma:  0.069281752
  weight: 8    
  band:
  - # 1
    frequency:     1.3691594491
  - # 2
    frequency:     1.4729737216
  - # 3
    frequency:     1.8877678428
  - # 4
    frequency:     2.9513728714
  - # 5
    frequency:     3.6706330122
  - # 6
    frequency:     6.3942392977
  - # 7
    frequency:    10.4539622576
  - # 8
    frequency:    10.5082345568
  - # 9
    frequency:    10.6670929064
  - # 10
    frequency:    10.8154349118
  - # 11
    frequency:    11.1347095450
  - # 12
    frequency:    12.1140549979

- q-position: [    0.2187500,    0.0937500,    0.0312500 ]
  distance_from_gamma:  0.087875340
  weight: 8    
  band:
  - # 1
    frequency:     1.6326190363
  - # 2
    frequency:     1.8781933095
  - # 3
    frequency:     2.0792564777
  - # 4
    frequency:     3.2251567072
  - # 5
    frequency:     4.4514287984
  - # 6
    frequency:     6.4858071672
  - # 7
    frequency:    10.5519146686
  - # 8
    frequency:    10.5955780672
  - # 9
    frequency:    10.7476882346
  - # 10
    frequency:    10.9933423336
  - # 11
    frequency:    11.4154225066
  - # 12
    frequency:    12.1652976319

- q-position: [    0.2812500,    0.0937500,    0.0312500 ]
  distance_from_gamma:  0.106880401
  weight: 8    
  band:
  - # 1
    frequency:     1.8262117865
  - # 2
    frequency:     2.2191468286
  - # 3
    frequency:     2.2616371266
  - # 4
    frequency:     3.3441942447
  - # 5
    frequency:     5.1344790549
  - # 6
    frequency:     6.6380726308
  - # 7
    frequency:    10.5710791220
  - # 8
    frequency:    10.7251558302
  - # 9
    frequency:    10.8301097682
  - # 10
    frequency:    11.1700339819
  - # 11
    frequency:    11.6220660713
  - # 12
    frequency:    12.2136761610

- q-position: [    0.3437500,    0.0937500,    0.0312500 ]
  distance_from_gamma:  0.126111044
  weight: 8    
  band:
  - # 1
    frequency:     1.9430695045
  - # 2
    frequency:     2.3326249906
  - # 3
    frequency:     2.5735427897
  - # 4
    frequency:     3.3391395506
  - # 5
    frequency:     5.6718988693
  - # 6
    frequency:     6.7852044866
  - # 7
    frequency:    10.5918679326
  - # 8
    frequency:    10.7982979350
  - # 9
    frequency:    10.9139144238
  - # 10
    frequency:    11.3298497865
  - # 11
    frequency:    11.7183206575
  - # 12
    frequency:    12.2597318774

- q-position: [    0.4062500,    0.0937500,    0.0312500 ]
  distance_from_gamma:  0.145477837
  weight: 8    
  band:
  - # 1
    frequency:     1.9959733345
  - # 2
    frequency:     2.3994712396
  - # 3
    frequency:     2.8004172919
  - # 4
    frequency:     3.2717588215
  - # 5
    frequency:     6.0096670564
  - # 6
    frequency:     6.8683159450
  - # 7
    frequency:    10.6219358391
  - # 8
    frequency:    10.8032137021
  - # 9
    frequency:    10.9857134940
  - # 10
    frequency:    11.4587142777
  - # 11
    frequency:    11.7171200487
  - # 12
    frequency:    12.2952419807

- q-position: [   -0.5312500,    0.0937500,    0.0312500 ]
  distance_from_gamma:  0.155196377
  weight: 8    
  band:
  - # 1
    frequency:     2.0052037302
  - # 2
    frequency:     2.4135211523
  - # 3
    frequency:     2.8589131439
  - # 4
    frequency:     3.2440418070
  - # 5
    frequency:     6.0828248223
  - # 6
    frequency:     6.8828322369
  - # 7
    frequency:    10.6320312429
  - # 8
    frequency:    10.7990693552
  - # 9
    frequency:    11.0018625072
  - # 10
    frequency:    11.4958254258
  - # 11
    frequency:    11.7037607794
  - # 12
    frequency:    12.3034985092

- q-position: [   -0.4687500,    0.0937500,    0.0312500 ]
  distance_from_gamma:  0.135781053
  weight: 8    
  band:
  - # 1
    frequency:     1.9761010723
  - # 2
    frequency:     2.3720847801
  - # 3
    frequency:     2.7009310379
  - # 4
    frequency:     3.3085723975
  - # 5
    frequency:     5.8697371796
  - # 6
    frequency:     6.8363855677
  - # 7
    frequency:    10.6068150928
  - # 8
    frequency:    10.8055730445
  - # 9
    frequency:    10.9550173976
  - # 10
    frequency:    11.3999314331
  - # 11
    frequency:    11.7265453518
  - # 12
    frequency:    12.2799286207

- q-position: [   -0.4062500,    0.0937500,    0.0312500 ]
  distance_from_gamma:  0.116474478
  weight: 8    
  band:
  - # 1
    frequency:     1.8939183360
  - # 2
    frequency:     2.2823660910
  - # 3
    frequency:     2.4248262963
  - # 4
    frequency:     3.3536632424
  - # 5
    frequency:     5.4244583983
  - # 6
    frequency:     6.7169566782
  - # 7
    frequency:    10.5798716292
  - # 8
    frequency:    10.7729373822
  - # 9
    frequency:    10.8701538936
  - # 10
    frequency:    11.2526763352
  - # 11
    frequency:    11.6846372480
  - # 12
    frequency:    12.2370945985

- q-position: [   -0.3437500,    0.0937500,    0.0312500 ]
  distance_from_gamma:  0.097341379
  weight: 8    
  band:
  - # 1
    frequency:     1.7389179866
  - # 2
    frequency:     2.0709011420
  - # 3
    frequency:     2.1591532429
  - # 4
    frequency:     3.3033574787
  - # 5
    frequency:     4.8081741412
  - # 6
    frequency:     6.5577720429
  - # 7
    frequency:    10.5635023352
  - # 8
    frequency:    10.6623099291
  - # 9
    frequency:    10.7905878002
  - # 10
    frequency:    11.0830455957
  - # 11
    frequency:    11.5311122444
  - # 12
    frequency:    12.1898542439

- q-position: [   -0.2812500,    0.0937500,    0.0312500 ]
  distance_from_gamma:  0.078508691
  weight: 8    
  band:
  - # 1
    frequency:     1.5088881946
  - # 2
    frequency:     1.6770061833
  - # 3
    frequency:     1.9889495705
  - # 4
    frequency:     3.1069418873
  - # 5
    frequency:     4.0701742011
  - # 6
    frequency:     6.4299821483
  - # 7
    frequency:    10.5151606081
  - # 8
    frequency:    10.5459178241
  - # 9
    frequency:    10.7039471674
  - # 10
    frequency:    10.9032759539
  - # 11
    frequency:    11.2808067463
  - # 12
    frequency:    12.1398685634

- q-position: [   -0.2187500,    0.0937500,    0.0312500 ]
  distance_from_gamma:  0.060258738
  weight: 8    
  band:
  - # 1
    frequency:     1.2132549318
  - # 2
    frequency:     1.2712707362
  - # 3
    frequency:     1.7803429818
  - # 4
    frequency:     2.7668338423
  - # 5
    frequency:     3.2596939322
  - # 6
    frequency:     6.3781088798
  - # 7
    frequency:    10.3957538944
  - # 8
    frequency:    10.4554811117
  - # 9
    frequency:    10.6418619509
  - # 10
    frequency:    10.7315933034
  - # 11
    frequency:    10.9862625858
  - # 12
    frequency:    12.0888949183

- q-position: [   -0.1562500,    0.0937500,    0.0312500 ]
  distance_from_gamma:  0.043334131
  weight: 8    
  band:
  - # 1
    frequency:     0.8334485286
  - # 2
    frequency:     0.9038059824
  - # 3
    frequency:     1.6064516956
  - # 4
    frequency:     2.3347544788
  - # 5
    frequency:     2.4628726504
  - # 6
    frequency:     6.3869992172
  - # 7
    frequency:    10.3030112208
  - # 8
    frequency:    10.3346536544
  - # 9
    frequency:    10.5695908159
  - # 10
    frequency:    10.6122610489
  - # 11
    frequency:    10.7316988617
  - # 12
    frequency:    12.0456688640

- q-position: [   -0.0937500,    0.0937500,    0.0312500 ]
  distance_from_gamma:  0.030063414
  weight: 4    
  band:
  - # 1
    frequency:     0.4838166015
  - # 2
    frequency:     0.6245501110
  - # 3
    frequency:     1.5962302147
  - # 4
    frequency:     1.6556070225
  - # 5
    frequency:     2.0418486217
  - # 6
    frequency:     6.4120942826
  - # 7
    frequency:    10.2493272680
  - # 8
    frequency:    10.2574113311
  - # 9
    frequency:    10.4133611545
  - # 10
    frequency:    10.5863941162
  - # 11
    frequency:    10.6122494283
  - # 12
    frequency:    12.0190055273

- q-position: [    0.1562500,    0.1562500,    0.0312500 ]
  distance_from_gamma:  0.085629786
  weight: 4    
  band:
  - # 1
    frequency:     1.7801247424
  - # 2
    frequency:     1.8260092725
  - # 3
    frequency:     2.1192425618
  - # 4
    frequency:     3.1547447509
  - # 5
    frequency:     4.3041841780
  - # 6
    frequency:     6.4582630527
  - # 7
    frequency:    10.5504092805
  - # 8
    frequency:    10.5688027759
  - # 9
    frequency:    10.7868811648
  - # 10
    frequency:    10.9235788212
  - # 11
    frequency:    11.4146689675
  - # 12
    frequency:    12.1430385576

- q-position: [    0.2187500,    0.1562500,    0.0312500 ]
  distance_from_gamma:  0.103170682
  weight: 8    
  band:
  - # 1
    frequency:     2.0787185580
  - # 2
    frequency:     2.1841408664
  - # 3
    frequency:     2.3508156335
  - # 4
    frequency:     3.2603712955
  - # 5
    frequency:     4.9095817400
  - # 6
    frequency:     6.5675548933
  - # 7
    frequency:    10.5238665315
  - # 8
    frequency:    10.6861719995
  - # 9
    frequency:    10.9284099359
  - # 10
    frequency:    11.0768084282
  - # 11
    frequency:    11.6581834790
  - # 12
    frequency:    12.1568621235

- q-position: [    0.2812500,    0.1562500,    0.0312500 ]
  distance_from_gamma:  0.121388425
  weight: 8    
  band:
  - # 1
    frequency:     2.2768609788
  - # 2
    frequency:     2.4733226077
  - # 3
    frequency:     2.5512563114
  - # 4
    frequency:     3.2867150706
  - # 5
    frequency:     5.4435288007
  - # 6
    frequency:     6.6812517030
  - # 7
    frequency:    10.5074070498
  - # 8
    frequency:    10.7524908561
  - # 9
    frequency:    11.0115276518
  - # 10
    frequency:    11.2787764804
  - # 11
    frequency:    11.8091335098
  - # 12
    frequency:    12.1731519165

- q-position: [    0.3437500,    0.1562500,    0.0312500 ]
  distance_from_gamma:  0.140019071
  weight: 8    
  band:
  - # 1
    frequency:     2.3897750739
  - # 2
    frequency:     2.6058260311
  - # 3
    frequency:     2.7651793130
  - # 4
    frequency:     3.2646303349
  - # 5
    frequency:     5.8530283021
  - # 6
    frequency:     6.7490346970
  - # 7
    frequency:    10.5289125279
  - # 8
    frequency:    10.7245903348
  - # 9
    frequency:    11.0927050061
  - # 10
    frequency:    11.4714789391
  - # 11
    frequency:    11.8145422748
  - # 12
    frequency:    12.2222244304

- q-position: [    0.4062500,    0.1562500,    0.0312500 ]
  distance_from_gamma:  0.158917466
  weight: 8    
  band:
  - # 1
    frequency:     2.4331886428
  - # 2
    frequency:     2.6544070537
  - # 3
    frequency:     2.8856031514
  - # 4
    frequency:     3.2343910187
  - # 5
    frequency:     6.0611238862
  - # 6
    frequency:     6.7624104524
  - # 7
    frequency:    10.5914001251
  - # 8
    frequency:    10.6452239953
  - # 9
    frequency:    11.1402152428
  - # 10
    frequency:    11.6396839592
  - # 11
    frequency:    11.7136858052
  - # 12
    frequency:    12.2607248206

- q-position: [   -0.5312500,    0.1562500,    0.0312500 ]
  distance_from_gamma:  0.149441115
  weight: 8    
  band:
  - # 1
    frequency:     2.4191258388
  - # 2
    frequency:     2.6383634124
  - # 3
    frequency:     2.8427058971
  - # 4
    frequency:     3.2470398894
  - # 5
    frequency:     5.9883459945
  - # 6
    frequency:     6.7602036288
  - # 7
    frequency:    10.5565077723
  - # 8
    frequency:    10.6867166231
  - # 9
    frequency:    11.1234839855
  - # 10
    frequency:    11.5592836357
  - # 11
    frequency:    11.7728641113
  - # 12
    frequency:    12.2467472861

- q-position: [   -0.4687500,    0.1562500,    0.0312500 ]
  distance_from_gamma:  0.130663082
  weight: 8    
  band:
  - # 1
    frequency:     2.3430884161
  - # 2
    frequency:     2.5544484183
  - # 3
    frequency:     2.6628499613
  - # 4
    frequency:     3.2796117815
  - # 5
    frequency:     5.6678688702
  - # 6
    frequency:     6.7230174639
  - # 7
    frequency:    10.5124701588
  - # 8
    frequency:    10.7491840952
  - # 9
    frequency:    11.0531404929
  - # 10
    frequency:    11.3776856210
  - # 11
    frequency:    11.8297842679
  - # 12
    frequency:    12.1945555390

- q-position: [   -0.4062500,    0.1562500,    0.0312500 ]
  distance_from_gamma:  0.112215266
  weight: 8    
  band:
  - # 1
    frequency:     2.1892567560
  - # 2
    frequency:     2.3448090197
  - # 3
    frequency:     2.4511508789
  - # 4
    frequency:     3.2816625502
  - # 5
    frequency:     5.1884372743
  - # 6
    frequency:     6.6273346320
  - # 7
    frequency:    10.5121519264
  - # 8
    frequency:    10.7302065124
  - # 9
    frequency:    10.9717292456
  - # 10
    frequency:    11.1767063254
  - # 11
    frequency:    11.7497183681
  - # 12
    frequency:    12.1620328169

- q-position: [   -0.3437500,    0.1562500,    0.0312500 ]
  distance_from_gamma:  0.094291681
  weight: 8    
  band:
  - # 1
    frequency:     1.9432878927
  - # 2
    frequency:     2.0081843940
  - # 3
    frequency:     2.2395387760
  - # 4
    frequency:     3.2190522236
  - # 5
    frequency:     4.6130300861
  - # 6
    frequency:     6.5090680824
  - # 7
    frequency:    10.5386180413
  - # 8
    frequency:    10.6296017521
  - # 9
    frequency:    10.8679255694
  - # 10
    frequency:    10.9903199219
  - # 11
    frequency:    11.5439253906
  - # 12
    frequency:    12.1516437562

- q-position: [   -0.2812500,    0.1562500,    0.0312500 ]
  distance_from_gamma:  0.077258054
  weight: 8    
  band:
  - # 1
    frequency:     1.5872790536
  - # 2
    frequency:     1.6454995654
  - # 3
    frequency:     1.9981452947
  - # 4
    frequency:     3.0657263880
  - # 5
    frequency:     3.9881324554
  - # 6
    frequency:     6.4194649212
  - # 7
    frequency:    10.5089903545
  - # 8
    frequency:    10.5470379259
  - # 9
    frequency:    10.7094365814
  - # 10
    frequency:    10.8670911994
  - # 11
    frequency:    11.2764825634
  - # 12
    frequency:    12.1302488886

- q-position: [   -0.2187500,    0.1562500,    0.0312500 ]
  distance_from_gamma:  0.061854047
  weight: 8    
  band:
  - # 1
    frequency:     1.1406449456
  - # 2
    frequency:     1.3135266684
  - # 3
    frequency:     1.8001600329
  - # 4
    frequency:     2.8116642910
  - # 5
    frequency:     3.3601993086
  - # 6
    frequency:     6.3814775181
  - # 7
    frequency:    10.4058591251
  - # 8
    frequency:    10.4460257830
  - # 9
    frequency:    10.6528080380
  - # 10
    frequency:    10.7719522382
  - # 11
    frequency:    10.9947736920
  - # 12
    frequency:    12.0961016427

- q-position: [   -0.1562500,    0.1562500,    0.0312500 ]
  distance_from_gamma:  0.049621263
  weight: 4    
  band:
  - # 1
    frequency:     0.7988173835
  - # 2
    frequency:     1.0491581215
  - # 3
    frequency:     1.7093260171
  - # 4
    frequency:     2.4779786773
  - # 5
    frequency:     2.8185746611
  - # 6
    frequency:     6.3803331127
  - # 7
    frequency:    10.3356959826
  - # 8
    frequency:    10.3520927183
  - # 9
    frequency:    10.6164420382
  - # 10
    frequency:    10.7263237291
  - # 11
    frequency:    10.7524537603
  - # 12
    frequency:    12.0630148079

- q-position: [    0.2187500,    0.2187500,    0.0312500 ]
  distance_from_gamma:  0.119772845
  weight: 4    
  band:
  - # 1
    frequency:     2.4396214441
  - # 2
    frequency:     2.4547116723
  - # 3
    frequency:     2.6415673227
  - # 4
    frequency:     3.2374384591
  - # 5
    frequency:     5.3383530491
  - # 6
    frequency:     6.6377530923
  - # 7
    frequency:    10.4686969393
  - # 8
    frequency:    10.7438447917
  - # 9
    frequency:    11.1335385230
  - # 10
    frequency:    11.1656363190
  - # 11
    frequency:    11.8824864680
  - # 12
    frequency:    12.1101431677

- q-position: [    0.2812500,    0.2187500,    0.0312500 ]
  distance_from_gamma:  0.137208271
  weight: 8    
  band:
  - # 1
    frequency:     2.6549509721
  - # 2
    frequency:     2.6929680919
  - # 3
    frequency:     2.8698610298
  - # 4
    frequency:     3.2033876830
  - # 5
    frequency:     5.7209036121
  - # 6
    frequency:     6.6620753297
  - # 7
    frequency:    10.4440728210
  - # 8
    frequency:    10.7139906869
  - # 9
    frequency:    11.2203221048
  - # 10
    frequency:    11.3774502167
  - # 11
    frequency:    11.9675881795
  - # 12
    frequency:    12.1125801244

- q-position: [    0.3437500,    0.2187500,    0.0312500 ]
  distance_from_gamma:  0.155196377
  weight: 8    
  band:
  - # 1
    frequency:     2.7844214538
  - # 2
    frequency:     2.8407676718
  - # 3
    frequency:     2.9490871717
  - # 4
    frequency:     3.2116969426
  - # 5
    frequency:     6.0060887900
  - # 6
    frequency:     6.6307250389
  - # 7
    frequency:    10.4725817636
  - # 8
    frequency:    10.6189793224
  - # 9
    frequency:    11.2930432676
  - # 10
    frequency:    11.5716735885
  - # 11
    frequency:    11.8475907512
  - # 12
    frequency:    12.2103809534

- q-position: [   -0.5937500,    0.2187500,    0.0312500 ]
  distance_from_gamma:  0.164341199
  weight: 8    
  band:
  - # 1
    frequency:     2.8122756289
  - # 2
    frequency:     2.8869457898
  - # 3
    frequency:     2.9365454413
  - # 4
    frequency:     3.2234497427
  - # 5
    frequency:     6.0781017942
  - # 6
    frequency:     6.6121966852
  - # 7
    frequency:    10.5033745589
  - # 8
    frequency:    10.5711928847
  - # 9
    frequency:    11.3105559375
  - # 10
    frequency:    11.6516638497
  - # 11
    frequency:    11.7792470129
  - # 12
    frequency:    12.2329085627

- q-position: [   -0.5312500,    0.2187500,    0.0312500 ]
  distance_from_gamma:  0.146145847
  weight: 8    
  band:
  - # 1
    frequency:     2.7305007064
  - # 2
    frequency:     2.7772857682
  - # 3
    frequency:     2.9312616345
  - # 4
    frequency:     3.2006994782
  - # 5
    frequency:     5.8810011927
  - # 6
    frequency:     6.6516310142
  - # 7
    frequency:    10.4512684886
  - # 8
    frequency:    10.6705020738
  - # 9
    frequency:    11.2610778453
  - # 10
    frequency:    11.4779201310
  - # 11
    frequency:    11.9155856385
  - # 12
    frequency:    12.1674558731

- q-position: [   -0.4687500,    0.2187500,    0.0312500 ]
  distance_from_gamma:  0.128407236
  weight: 8    
  band:
  - # 1
    frequency:     2.5610698788
  - # 2
    frequency:     2.5827349291
  - # 3
    frequency:     2.7693348359
  - # 4
    frequency:     3.2183800436
  - # 5
    frequency:     5.5375242721
  - # 6
    frequency:     6.6573237934
  - # 7
    frequency:    10.4506328970
  - # 8
    frequency:    10.7405365606
  - # 9
    frequency:    11.1775118515
  - # 10
    frequency:    11.2714535827
  - # 11
    frequency:    11.9630051836
  - # 12
    frequency:    12.0863701909

- q-position: [   -0.4062500,    0.2187500,    0.0312500 ]
  distance_from_gamma:  0.111343874