 vasp.6.4.3 19Mar24 (build Jul  1 2025 23:09:51) complex                         
 executed on             LinuxGNU date 2025.12.31  16:16:08
 running   14 mpi-ranks, with   14 threads/rank, on    1 nodes
 distrk:  each k-point on   14 cores,    1 groups
 distr:  one band on NCORE=   1 cores,   14 groups


--------------------------------------------------------------------------------------------------------


 INCAR:
   GGA = PE
   PREC = Accurate
   ENCUT = 520
   KSPACING = 0.3
   ISMEAR = 0
   SIGMA = 0.03
   EDIFF = 1e-6
   NELM = 120
   NELMIN = 8
   ISIF = 2
   IBRION = 1
   EDIFFG = -1e-3
   NSW = 200

 POTCAR:    PAW_PBE Zn 06Sep2000                  
 POTCAR:    PAW_PBE S 06Sep2000                   
 POTCAR:    PAW_PBE Zn 06Sep2000                  
   SHA256 =  501fddbd8274dd8e9725d4f3de27861d7f1e553a7e18441bc79fed8f346e7f23 Zn/POTCAR             
   COPYR  = (c) Copyright 06Sep2000 Georg Kresse                                                    
   COPYR  = This file is part of the software VASP. Any use, copying, and all other rights are regul
   COPYR  = If you do not have a valid VASP license, you may not use, copy or distribute this file. 
   VRHFIN =Zn: d10 p2                                                                               
   LEXCH  = PE                                                                                      
   EATOM  =  1748.8345 eV,  128.5357 Ry                                                             
                                                                                                    
   TITEL  = PAW_PBE Zn 06Sep2000                                                                    
   LULTRA =        F    use ultrasoft PP ?                                                          
   IUNSCR =        1    unscreen: 0-lin 1-nonlin 2-no                                               
   RPACOR =    2.000    partial core radius                                                         
   POMASS =   65.390; ZVAL   =   12.000    mass and valenz                                          
   RCORE  =    2.300    outmost cutoff radius                                                       
   RWIGS  =    2.400; RWIGS  =    1.270    wigner-seitz radius (au A)                               
   ENMAX  =  276.723; ENMIN  =  207.542 eV                                                          
   RCLOC  =    1.828    cutoff for local pot                                                        
   LCOR   =        T    correct aug charges                                                         
   LPAW   =        T    paw PP                                                                      
   EAUG   =  575.892                                                                                
   DEXC   =    0.000                                                                                
   RMAX   =    2.347    core radius for proj-oper                                                   
   RAUG   =    1.300    factor for augmentation sphere                                              
   RDEP   =    2.324    radius for radial grids                                                     
   RDEPT  =    1.788    core radius for aug-charge                                                  
                                                                                                    
   Atomic configuration                                                                             
    9 entries                                                                                       
     n  l   j            E        occ.                                                              
     1  0  0.50     -9524.6913   2.0000                                                             
     2  0  0.50     -1158.1882   2.0000                                                             
     2  1  1.50     -1003.8506   6.0000                                                             
     3  0  0.50      -129.2194   2.0000                                                             
     3  1  1.50       -83.3890   6.0000                                                             
     3  2  2.50       -10.1410  10.0000                                                             
     4  0  0.50        -5.9785   2.0000                                                             
     4  1  0.50        -4.0817   0.0000                                                             
     4  3  2.50        -1.3606   0.0000                                                             
   Description                                                                                      
     l       E           TYP  RCUT    TYP  RCUT                                                     
     2    -10.1410010     23  2.300                                                                 
     2    -11.5015836     23  2.300                                                                 
     0     -5.9785163     23  2.300                                                                 
     0      1.1858015     23  2.300                                                                 
     1     -2.7211652     23  2.300                                                                 
     1     13.2444212     23  2.300                                                                 
  local pseudopotential read in
  partial core-charges read in
  partial kinetic energy density read in
  atomic valenz-charges read in
  non local Contribution for L=           2  read in
    real space projection operators read in
  non local Contribution for L=           2  read in
    real space projection operators read in
  non local Contribution for L=           0  read in
    real space projection operators read in
  non local Contribution for L=           0  read in
    real space projection operators read in
  non local Contribution for L=           1  read in
    real space projection operators read in
  non local Contribution for L=           1  read in
    real space projection operators read in
    PAW grid and wavefunctions read in

   number of l-projection  operators is LMAX  =           6
   number of lm-projection operators is LMMAX =          18

 POTCAR:    PAW_PBE S 06Sep2000                   
   SHA256 =  0fc7481fb0695f01bdc6462160264c5c84044ae9ec85a907d398b887a2bc3132 S/POTCAR              
   COPYR  = (c) Copyright 06Sep2000 Georg Kresse                                                    
   COPYR  = This file is part of the software VASP. Any use, copying, and all other rights are regul
   COPYR  = If you do not have a valid VASP license, you may not use, copy or distribute this file. 
   VRHFIN =S : s2p4                                                                                 
   LEXCH  = PE                                                                                      
   EATOM  =   276.8230 eV,   20.3459 Ry                                                             
                                                                                                    
   TITEL  = PAW_PBE S 06Sep2000                                                                     
   LULTRA =        F    use ultrasoft PP ?                                                          
   IUNSCR =        1    unscreen: 0-lin 1-nonlin 2-no                                               
   RPACOR =    1.500    partial core radius                                                         
   POMASS =   32.066; ZVAL   =    6.000    mass and valenz                                          
   RCORE  =    1.900    outmost cutoff radius                                                       
   RWIGS  =    2.200; RWIGS  =    1.164    wigner-seitz radius (au A)                               
   ENMAX  =  258.689; ENMIN  =  194.016 eV                                                          
   ICORE  =        2    local potential                                                             
   LCOR   =        T    correct aug charges                                                         
   LPAW   =        T    paw PP                                                                      
   EAUG   =  335.092                                                                                
   DEXC   =    0.000                                                                                
   RMAX   =    1.942    core radius for proj-oper                                                   
   RAUG   =    1.300    factor for augmentation sphere                                              
   RDEP   =    1.954    radius for radial grids                                                     
   RDEPT  =    1.744    core radius for aug-charge                                                  
                                                                                                    
   Atomic configuration                                                                             
    6 entries                                                                                       
     n  l   j            E        occ.                                                              
     1  0  0.50     -2405.8406   2.0000                                                             
     2  0  0.50      -211.7007   2.0000                                                             
     2  1  1.50      -156.4958   6.0000                                                             
     3  0  0.50       -17.2562   2.0000                                                             
     3  1  0.50        -7.0085   4.0000                                                             
     3  2  1.50        -6.8029   0.0000                                                             
   Description                                                                                      
     l       E           TYP  RCUT    TYP  RCUT                                                     
     0    -17.2561641     23  1.900                                                                 
     0    -15.8743224     23  1.900                                                                 
     1     -7.0085400     23  1.900                                                                 
     1     -2.7779785     23  1.900                                                                 
     2     -6.8029130     23  1.900                                                                 
  local pseudopotential read in
  partial core-charges read in
  partial kinetic energy density read in
  atomic valenz-charges read in
  non local Contribution for L=           0  read in
    real space projection operators read in
  non local Contribution for L=           0  read in
    real space projection operators read in
  non local Contribution for L=           1  read in
    real space projection operators read in
  non local Contribution for L=           1  read in
    real space projection operators read in
    PAW grid and wavefunctions read in

   number of l-projection  operators is LMAX  =           4
   number of lm-projection operators is LMMAX =           8

  PAW_PBE Zn 06Sep2000                  :
 energy of atom  1       EATOM=-1748.8345
 kinetic energy error for atom=    0.0029 (will be added to EATOM!!)
  PAW_PBE S 06Sep2000                   :
 energy of atom  2       EATOM= -276.8230
 kinetic energy error for atom=    0.0016 (will be added to EATOM!!)


 POSCAR: Zn S
  positions in cartesian coordinates
  velocities in cartesian coordinates


 exchange-correlation table for PE
   RHO(1)=    0.500       N(1)  =     2000
   RHO(2)=  100.500       N(2)  =     4000



--------------------------------------------------------------------------------------------------------


 ion  position               nearest neighbor table
   1  0.333  0.667  0.000-   4 2.45   4 2.45   4 2.45   3 2.46
   2  0.667  0.333  0.500-   3 2.45   3 2.45   3 2.45   4 2.46
   3  0.333  0.667  0.375-   2 2.45   2 2.45   2 2.45   1 2.46
   4  0.667  0.333  0.875-   1 2.45   1 2.45   1 2.45   2 2.46

  LATTYP: Found a hexagonal cell.
 ALAT       =     4.0025904443
 C/A-ratio  =     1.6395977843
  
  Lattice vectors:
  
 A1 = (   2.0012952221,  -3.4663450057,  -0.0000000000)
 A2 = (   2.0012952221,   3.4663450057,   0.0000000000)
 A3 = (   0.0000000000,   0.0000000000,   6.5626384240)


Analysis of symmetry for initial positions (statically):
=====================================================================
 Subroutine PRICEL returns:
 Original cell was already a primitive cell.
 

 Routine SETGRP: Setting up the symmetry group for a 
 hexagonal supercell.


 Subroutine GETGRP returns: Found 12 space group operations
 (whereof  6 operations were pure point group operations)
 out of a pool of 24 trial point group operations.


The static configuration has the point symmetry C_3v.
 The point group associated with its full space group is C_6v.


Analysis of symmetry for dynamics (positions and initial velocities):
=====================================================================
 Subroutine PRICEL returns:
 Original cell was already a primitive cell.
 

 Routine SETGRP: Setting up the symmetry group for a 
 hexagonal supercell.


 Subroutine GETGRP returns: Found 12 space group operations
 (whereof  6 operations were pure point group operations)
 out of a pool of 24 trial point group operations.


The dynamic configuration has the point symmetry C_3v.
 The point group associated with its full space group is C_6v.


 Subroutine INISYM returns: Found 12 space group operations
 (whereof  6 operations are pure point group operations),
 and found     1 'primitive' translations


----------------------------------------------------------------------------------------

                                     Primitive cell                                     

  volume of cell :      91.0524

  direct lattice vectors                    reciprocal lattice vectors
     2.001295222 -3.466345006 -0.000000000     0.249838202 -0.144244153  0.000000000
     2.001295222  3.466345006  0.000000000     0.249838202  0.144244153 -0.000000000
     0.000000000  0.000000000  6.562638424     0.000000000 -0.000000000  0.152377738

  length of vectors
     4.002590444  4.002590444  6.562638424     0.288488306  0.288488306  0.152377738

  position of ions in fractional coordinates (direct lattice)
     0.333333333  0.666666667  0.000260133
     0.666666667  0.333333333  0.500260133
     0.333333333  0.666666667  0.374739867
     0.666666667  0.333333333  0.874739867

  ion indices of the primitive-cell ions
   primitive index   ion index
                 1           1
                 2           2
                 3           3
                 4           4

----------------------------------------------------------------------------------------



 KPOINTS: Automatic kpoint scheme                 

Automatic generation of k-mesh.
 Grid dimensions read from file:
 generate k-points for:    6    6    4

 Generating k-lattice:

  Cartesian coordinates                     Fractional coordinates (reciprocal lattice)
     0.041639700 -0.024040692  0.000000000     0.166666667  0.000000000  0.000000000
     0.041639700  0.024040692 -0.000000000     0.000000000  0.166666667  0.000000000
     0.000000000 -0.000000000  0.038094435     0.000000000  0.000000000  0.250000000

  Length of vectors
     0.048081384  0.048081384  0.038094435

  Shift w.r.t. Gamma in fractional coordinates (k-lattice)
     0.000000000  0.000000000  0.000000000

 
 Subroutine IBZKPT returns following result:
 ===========================================
 
 Found     21 irreducible k-points:
 
 Following reciprocal coordinates:
            Coordinates               Weight
  0.000000  0.000000  0.000000      1.000000
  0.166667  0.000000  0.000000      6.000000
  0.333333  0.000000  0.000000      6.000000
  0.500000  0.000000  0.000000      3.000000
  0.166667  0.166667  0.000000      6.000000
  0.333333  0.166667  0.000000     12.000000
  0.333333  0.333333  0.000000      2.000000
  0.000000  0.000000  0.250000      2.000000
  0.166667  0.000000  0.250000     12.000000
  0.333333  0.000000  0.250000     12.000000
  0.500000  0.000000  0.250000      6.000000
  0.166667  0.166667  0.250000     12.000000
  0.333333  0.166667  0.250000     24.000000
  0.333333  0.333333  0.250000      4.000000
  0.000000  0.000000  0.500000      1.000000
  0.166667  0.000000  0.500000      6.000000
  0.333333  0.000000  0.500000      6.000000
  0.500000  0.000000  0.500000      3.000000
  0.166667  0.166667  0.500000      6.000000
  0.333333  0.166667  0.500000     12.000000
  0.333333  0.333333  0.500000      2.000000
 
 Following cartesian coordinates:
            Coordinates               Weight
  0.000000  0.000000  0.000000      1.000000
  0.041640 -0.024041  0.000000      6.000000
  0.083279 -0.048081  0.000000      6.000000
  0.124919 -0.072122  0.000000      3.000000
  0.083279 -0.000000  0.000000      6.000000
  0.124919 -0.024041  0.000000     12.000000
  0.166559  0.000000  0.000000      2.000000
  0.000000  0.000000  0.038094      2.000000
  0.041640 -0.024041  0.038094     12.000000
  0.083279 -0.048081  0.038094     12.000000
  0.124919 -0.072122  0.038094      6.000000
  0.083279 -0.000000  0.038094     12.000000
  0.124919 -0.024041  0.038094     24.000000
  0.166559  0.000000  0.038094      4.000000
  0.000000  0.000000  0.076189      1.000000
  0.041640 -0.024041  0.076189      6.000000
  0.083279 -0.048081  0.076189      6.000000
  0.124919 -0.072122  0.076189      3.000000
  0.083279 -0.000000  0.076189      6.000000
  0.124919 -0.024041  0.076189     12.000000
  0.166559  0.000000  0.076189      2.000000
 


--------------------------------------------------------------------------------------------------------




 Dimension of arrays:
   k-points           NKPTS =     21   k-points in BZ     NKDIM =     21   number of bands    NBANDS=     28
   number of dos      NEDOS =    301   number of ions     NIONS =      4
   non local maximal  LDIM  =      6   non local SUM 2l+1 LMDIM =     18
   total plane-waves  NPLWV =  45000
   max r-space proj   IRMAX =      1   max aug-charges    IRDMAX=  15768
   dimension x,y,z NGX =    30 NGY =   30 NGZ =   50
   dimension x,y,z NGXF=    60 NGYF=   60 NGZF=  100
   support grid    NGXF=    60 NGYF=   60 NGZF=  100
   ions per type =               2   2
   NGX,Y,Z   is equivalent  to a cutoff of  12.46, 12.46, 12.67 a.u.
   NGXF,Y,Z  is equivalent  to a cutoff of  24.92, 24.92, 25.33 a.u.

 SYSTEM =  unknown system                          
 POSCAR =  Zn S                                    

 Startparameter for this run:
   NWRITE =      2    write-flag & timer
   PREC   = accura    normal or accurate (medium, high low for compatibility)
   ISTART =      0    job   : 0-new  1-cont  2-samecut
   ICHARG =      2    charge: 1-file 2-atom 10-const
   ISPIN  =      1    spin polarized calculation?
   LNONCOLLINEAR =      F non collinear calculations
   LSORBIT =      F    spin-orbit coupling
   INIWAV =      1    electr: 0-lowe 1-rand  2-diag
   LASPH  =      F    aspherical Exc in radial PAW
 Electronic Relaxation 1
   ENCUT  =  520.0 eV  38.22 Ry    6.18 a.u.   7.44  7.44 12.20*2*pi/ulx,y,z
   ENINI  =  520.0     initial cutoff
   ENAUG  =  575.9 eV  augmentation charge cutoff
   NELM   =    120;   NELMIN=  8; NELMDL=  0     # of ELM steps 
   EDIFF  = 0.1E-05   stopping-criterion for ELM
   LREAL  =      F    real-space projection
   NLSPLINE    = F    spline interpolate recip. space projectors
   LCOMPAT=      F    compatible to vasp.4.4
   GGA_COMPAT  = T    GGA compatible to vasp.4.4-vasp.4.6
   LMAXPAW     = -100 max onsite density
   LMAXMIX     =    2 max onsite mixed and CHGCAR
   VOSKOWN=      0    Vosko Wilk Nusair interpolation
   ROPT   =    0.00000   0.00000
 Ionic relaxation
   EDIFFG = -.1E-02   stopping-criterion for IOM
   NSW    =    200    number of steps for IOM
   NBLOCK =      1;   KBLOCK =    200    inner block; outer block 
   IBRION =      1    ionic relax: 0-MD 1-quasi-New 2-CG
   NFREE  =      0    steps in history (QN), initial steepest desc. (CG)
   ISIF   =      2    stress and relaxation
   IWAVPR =     11    prediction:  0-non 1-charg 2-wave 3-comb
   ISYM   =      2    0-nonsym 1-usesym 2-fastsym
   LCORR  =      T    Harris-Foulkes like correction to forces

   POTIM  = 0.5000    time-step for ionic-motion
   TEIN   =    0.0    initial temperature
   TEBEG  =    0.0;   TEEND  =   0.0 temperature during run
   SMASS  =  -3.00    Nose mass-parameter (am)
   estimated Nose-frequenzy (Omega)   =  0.10E-29 period in steps = 0.13E+47 mass=  -0.366E-27a.u.
   SCALEE = 1.0000    scale energy and forces
   NPACO  =    256;   APACO  = 10.0  distance and # of slots for P.C.
   PSTRESS=    0.0 pullay stress

  Mass of Ions in am
   POMASS =  65.39 32.07
  Ionic Valenz
   ZVAL   =  12.00  6.00
  Atomic Wigner-Seitz radii
   RWIGS  =  -1.00 -1.00
  virtual crystal weights 
   VCA    =   1.00  1.00
   NELECT =      36.0000    total number of electrons
   NUPDOWN=      -1.0000    fix difference up-down

 DOS related values:
   EMIN   =  10.00;   EMAX   =-10.00  energy-range for DOS
   EFERMI =   0.00;   METHOD = LEGACY      
   ISMEAR =     0;   SIGMA  =   0.03  broadening in eV -4-tet -1-fermi 0-gaus

 Electronic relaxation 2 (details)
   IALGO  =     38    algorithm
   LDIAG  =      T    sub-space diagonalisation (order eigenvalues)
   LSUBROT=      F    optimize rotation matrix (better conditioning)
   TURBO    =      0    0=normal 1=particle mesh
   IRESTART =      0    0=no restart 2=restart with 2 vectors
   NREBOOT  =      0    no. of reboots
   NMIN     =      0    reboot dimension
   EREF     =   0.00    reference energy to select bands
   IMIX   =      4    mixing-type and parameters
     AMIX     =   0.40;   BMIX     =  1.00
     AMIX_MAG =   1.60;   BMIX_MAG =  1.00
     AMIN     =   0.10
     WC   =   100.;   INIMIX=   1;  MIXPRE=   1;  MAXMIX= -45

 Intra band minimization:
   WEIMIN = 0.0010     energy-eigenvalue tresh-hold
   EBREAK =  0.89E-08  absolut break condition
   DEPER  =   0.30     relativ break condition  

   TIME   =   0.40     timestep for ELM

  volume/ion in A,a.u.               =      22.76       153.61
  Fermi-wavevector in a.u.,A,eV,Ry     =   1.201559  2.270618 19.643338  1.443745
  Thomas-Fermi vector in A             =   2.337365

 Write flags
   LWAVE        =      T    write WAVECAR
   LDOWNSAMPLE  =      F    k-point downsampling of WAVECAR
   LCHARG       =      T    write CHGCAR
   LVTOT        =      F    write LOCPOT, total local potential
   LVHAR        =      F    write LOCPOT, Hartree potential only
   WRT_POTENTIAL= false  ! write potential to hdf5 file
   LELF         =      F    write electronic localiz. function (ELF)
   LORBIT       =      0    0 simple, 1 ext, 2 COOP (PROOUT), +10 PAW based schemes


 Dipole corrections
   LMONO      =      F    monopole corrections only (constant potential shift)
   LDIPOL     =      F    correct potential (dipole corrections)
   IDIPOL     =      0    1-x, 2-y, 3-z, 4-all directions 
   EPSILON    =  1.0000000 bulk dielectric constant
   LVACPOTAV  =      F  vacuum potentials using an averaging scheme for the charge density
   VACPOTFLAT =  0.1000000 required flatness to determine vacuum potential
 Exchange correlation treatment:
   GGA     = PE    functional components
   XC_C    = 1    coefficients multiplying the functional components
   LIBXC   =     F    Libxc                    
   VOSKOWN =     0    Vosko Wilk Nusair interpolation
   LHFCALC =     F    Hartree Fock is set to
   LHFONE  =     F    Hartree Fock one center treatment
   AEXX    =    0.0000 exact exchange contribution

 Parameters of functionals:
   PE:
     No parameter

 Van der Waals corrections
   IVDW    =     0    specifies the selected vdW correction

 Linear response parameters
   LEPSILON=     F    determine dielectric tensor
   LRPA    =     F    only Hartree local field effects (RPA)
   LNABLA  =     F    use nabla operator in PAW spheres
   LVEL    =     F    velocity operator in full k-point grid
   CSHIFT  =0.1000    complex shift for real part using Kramers Kronig
   OMEGAMAX=  -1.0    maximum frequency
   DEG_THRESHOLD= 0.2000000E-02 threshold for treating states as degnerate
   RTIME   =   -0.100 relaxation time in fs
  (WPLASMAI=    0.000 imaginary part of plasma frequency in eV, 0.658/RTIME)
   DFIELD  = 0.0000000 0.0000000 0.0000000 field for delta impulse in time

  Optional k-point grid parameters
   LKPOINTS_OPT  =     F    use optional k-point grid
   KPOINTS_OPT_MODE=     1    mode for optional k-point grid

 Orbital magnetization related:
   ORBITALMAG=     F  switch on orbital magnetization
   LCHIMAG   =     F  perturbation theory with respect to B field
   DQ        =  0.001000  dq finite difference perturbation B field
   LLRAUG    =     F  two centre corrections for induced B field
   LBONE     =     F  B-component reconstruction in AE one-centre
   LVGVCALC  =     T  calculate vGv susceptibility
   LVGVAPPL  =     F  apply vGv susceptibility instead of pGv for G=0

 Random number generation:
   RANDOM_GENERATOR = DEFAULT
   PCG_SEED         = not used


--------------------------------------------------------------------------------------------------------


 quasi-Newton-method for relaxation of ions
 charge density and potential will be updated during run
 non-spin polarized calculation
 Variant of blocked Davidson
 Davidson routine will perform the subspace rotation
 perform sub-space diagonalisation
    after iterative eigenvector-optimisation
 modified Broyden-mixing scheme, WC =      100.0
 initial mixing is a Kerker type mixing with AMIX =  0.4000 and BMIX =      1.0000
 Hartree-type preconditioning will be used
 using additional bands           10
 reciprocal scheme for non local part
 use partial core corrections
 calculate Harris-corrections to forces   (improved forces if not selfconsistent)
 use gradient corrections 
 use of overlap-Matrix (Vanderbilt PP)
 Gauss-broadening in eV      SIGMA  =   0.03


--------------------------------------------------------------------------------------------------------


  energy-cutoff  :      520.00
  volume of cell :       91.05
      direct lattice vectors                 reciprocal lattice vectors
     2.001295222 -3.466345006 -0.000000000     0.249838202 -0.144244153  0.000000000
     2.001295222  3.466345006  0.000000000     0.249838202  0.144244153 -0.000000000
     0.000000000  0.000000000  6.562638424     0.000000000 -0.000000000  0.152377738

  length of vectors
     4.002590444  4.002590444  6.562638424     0.288488306  0.288488306  0.152377738



 k-points in units of 2pi/SCALE and weight: Automatic kpoint scheme                 
   0.00000000 -0.00000000  0.00000000       0.007
   0.04163970 -0.02404069  0.00000000       0.042
   0.08327940 -0.04808138  0.00000000       0.042
   0.12491910 -0.07212208  0.00000000       0.021
   0.08327940  0.00000000  0.00000000       0.042
   0.12491910 -0.02404069  0.00000000       0.083
   0.16655880 -0.00000000  0.00000000       0.014
   0.00000000 -0.00000000  0.03809443       0.014
   0.04163970 -0.02404069  0.03809443       0.083
   0.08327940 -0.04808138  0.03809443       0.083
   0.12491910 -0.07212208  0.03809443       0.042
   0.08327940  0.00000000  0.03809443       0.083
   0.12491910 -0.02404069  0.03809443       0.167
   0.16655880 -0.00000000  0.03809443       0.028
   0.00000000 -0.00000000  0.07618887       0.007
   0.04163970 -0.02404069  0.07618887       0.042
   0.08327940 -0.04808138  0.07618887       0.042
   0.12491910 -0.07212208  0.07618887       0.021
   0.08327940  0.00000000  0.07618887       0.042
   0.12491910 -0.02404069  0.07618887       0.083
   0.16655880 -0.00000000  0.07618887       0.014

 k-points in reciprocal lattice and weights: Automatic kpoint scheme                 
   0.00000000  0.00000000  0.00000000       0.007
   0.16666667  0.00000000  0.00000000       0.042
   0.33333333  0.00000000  0.00000000       0.042
   0.50000000  0.00000000  0.00000000       0.021
   0.16666667  0.16666667  0.00000000       0.042
   0.33333333  0.16666667  0.00000000       0.083
   0.33333333  0.33333333  0.00000000       0.014
   0.00000000  0.00000000  0.25000000       0.014
   0.16666667  0.00000000  0.25000000       0.083
   0.33333333  0.00000000  0.25000000       0.083
   0.50000000  0.00000000  0.25000000       0.042
   0.16666667  0.16666667  0.25000000       0.083
   0.33333333  0.16666667  0.25000000       0.167
   0.33333333  0.33333333  0.25000000       0.028
   0.00000000  0.00000000  0.50000000       0.007
   0.16666667  0.00000000  0.50000000       0.042
   0.33333333  0.00000000  0.50000000       0.042
   0.50000000  0.00000000  0.50000000       0.021
   0.16666667  0.16666667  0.50000000       0.042
   0.33333333  0.16666667  0.50000000       0.083
   0.33333333  0.33333333  0.50000000       0.014

 position of ions in fractional coordinates (direct lattice) 
   0.33333333  0.66666667  0.00026013
   0.66666667  0.33333333  0.50026013
   0.33333333  0.66666667  0.37473987
   0.66666667  0.33333333  0.87473987

 position of ions in cartesian coordinates  (Angst):
   2.00129522  1.15544834  0.00170716
   2.00129522 -1.15544834  3.28302637
   2.00129522  1.15544834  2.45928225
   2.00129522 -1.15544834  5.74060146



--------------------------------------------------------------------------------------------------------


 k-point     1 :   0.0000 0.0000 0.0000  plane waves:    2491
 k-point     2 :   0.1667 0.0000 0.0000  plane waves:    2467
 k-point     3 :   0.3333 0.0000 0.0000  plane waves:    2453
 k-point     4 :   0.5000 0.0000 0.0000  plane waves:    2444
 k-point     5 :   0.1667 0.1667 0.0000  plane waves:    2459
 k-point     6 :   0.3333 0.1667 0.0000  plane waves:    2445
 k-point     7 :   0.3333 0.3333 0.0000  plane waves:    2436
 k-point     8 :   0.0000 0.0000 0.2500  plane waves:    2454
 k-point     9 :   0.1667 0.0000 0.2500  plane waves:    2462
 k-point    10 :   0.3333 0.0000 0.2500  plane waves:    2464
 k-point    11 :   0.5000 0.0000 0.2500  plane waves:    2432
 k-point    12 :   0.1667 0.1667 0.2500  plane waves:    2457
 k-point    13 :   0.3333 0.1667 0.2500  plane waves:    2448
 k-point    14 :   0.3333 0.3333 0.2500  plane waves:    2442
 k-point    15 :   0.0000 0.0000 0.5000  plane waves:    2472
 k-point    16 :   0.1667 0.0000 0.5000  plane waves:    2464
 k-point    17 :   0.3333 0.0000 0.5000  plane waves:    2448
 k-point    18 :   0.5000 0.0000 0.5000  plane waves:    2448
 k-point    19 :   0.1667 0.1667 0.5000  plane waves:    2454
 k-point    20 :   0.3333 0.1667 0.5000  plane waves:    2448
 k-point    21 :   0.3333 0.3333 0.5000  plane waves:    2448

 maximum and minimum number of plane-waves per node :      2491     2432

 maximum number of plane-waves:      2491
 maximum index in each direction: 
   IXMAX=    7   IYMAX=    7   IZMAX=   12
   IXMIN=   -7   IYMIN=   -7   IZMIN=  -12


 serial   3D FFT for wavefunctions
 parallel 3D FFT for charge:
    minimum data exchange during FFTs selected (reduces bandwidth)


 total amount of memory used by VASP MPI-rank0    51703. kBytes
=======================================================================

   base      :      30000. kBytes
   nonl-proj :      15231. kBytes
   fftplans  :       1180. kBytes
   grid      :       3518. kBytes
   one-center:         62. kBytes
   wavefun   :       1712. kBytes

     INWAV:  cpu time      0.0000: real time      0.0000
 Broyden mixing: mesh for mixing (old mesh)
   NGX = 15   NGY = 15   NGZ = 25
  (NGX  = 60   NGY  = 60   NGZ  =100)
  gives a total of   5625 points

 initial charge density was supplied:
 charge density of overlapping atoms calculated
 number of electron      36.0000000 magnetization 
 keeping initial charge density in first step


--------------------------------------------------------------------------------------------------------


 Maximum index for augmentation-charges         1102 (set IRDMAX)


--------------------------------------------------------------------------------------------------------


 First call to EWALD:  gamma=   0.394
 Maximum number of real-space cells 3x 3x 2
 Maximum number of reciprocal cells 2x 2x 4

    FEWALD:  cpu time      0.2051: real time      0.1979


--------------------------------------- Ionic step        1  -------------------------------------------




--------------------------------------- Iteration      1(   1)  ---------------------------------------


    POTLOK:  cpu time      0.0618: real time      0.1017
    SETDIJ:  cpu time      0.0017: real time      0.0037
     EDDAV:  cpu time      8.9317: real time     10.0172
       DOS:  cpu time      0.0003: real time      0.0003
    --------------------------------------------
      LOOP:  cpu time      8.9956: real time     10.1230

 eigenvalue-minimisations  :  1176
 total energy-change (2. order) : 0.1826927E+03  (-0.1758658E+04)
 number of electron      36.0000000 magnetization 
 augmentation part       36.0000000 magnetization 

 Free energy of the ion-electron system (eV)
  ---------------------------------------------------
  alpha Z        PSCENC =       124.19211853
  Ewald energy   TEWEN  =     -2387.15693164
  -Hartree energ DENC   =     -1451.56783543
  -exchange      EXHF   =         0.00000000
  -V(xc)+E(xc)   XCENC  =       137.55721557
  PAW double counting   =      3345.42656771    -3694.17617221
  entropy T*S    EENTRO =        -0.00086209
  eigenvalues    EBANDS =        57.11262848
  atomic energy  EATOM  =      4051.30602026
  Solvation  Ediel_sol  =         0.00000000
  ---------------------------------------------------
  free energy    TOTEN  =       182.69274919 eV

  energy without entropy =      182.69361128  energy(sigma->0) =      182.69318024


--------------------------------------------------------------------------------------------------------




--------------------------------------- Iteration      1(   2)  ---------------------------------------


     EDDAV:  cpu time     12.2754: real time     14.6613
       DOS:  cpu time      0.0002: real time      0.0002
    --------------------------------------------
      LOOP:  cpu time     12.2756: real time     14.6615

 eigenvalue-minimisations  :  1386
 total energy-change (2. order) :-0.1847061E+03  (-0.1783063E+03)
 number of electron      36.0000000 magnetization 
 augmentation part       36.0000000 magnetization 

 Free energy of the ion-electron system (eV)
  ---------------------------------------------------
  alpha Z        PSCENC =       124.19211853
  Ewald energy   TEWEN  =     -2387.15693164
  -Hartree energ DENC   =     -1451.56783543
  -exchange      EXHF   =         0.00000000
  -V(xc)+E(xc)   XCENC  =       137.55721557
  PAW double counting   =      3345.42656771    -3694.17617221
  entropy T*S    EENTRO =        -0.00000000
  eigenvalues    EBANDS =      -127.59429654
  atomic energy  EATOM  =      4051.30602026
  Solvation  Ediel_sol  =         0.00000000
  ---------------------------------------------------
  free energy    TOTEN  =        -2.01331374 eV

  energy without entropy =       -2.01331374  energy(sigma->0) =       -2.01331374


--------------------------------------------------------------------------------------------------------




--------------------------------------- Iteration      1(   3)  ---------------------------------------


     EDDAV:  cpu time     12.2268: real time     13.2980
       DOS:  cpu time      0.0002: real time      0.0002
    --------------------------------------------
      LOOP:  cpu time     12.2270: real time     13.2981

 eigenvalue-minimisations  :  1456
 total energy-change (2. order) :-0.1220474E+02  (-0.1216838E+02)
 number of electron      36.0000000 magnetization 
 augmentation part       36.0000000 magnetization 

 Free energy of the ion-electron system (eV)
  ---------------------------------------------------
  alpha Z        PSCENC =       124.19211853
  Ewald energy   TEWEN  =     -2387.15693164
  -Hartree energ DENC   =     -1451.56783543
  -exchange      EXHF   =         0.00000000
  -V(xc)+E(xc)   XCENC  =       137.55721557
  PAW double counting   =      3345.42656771    -3694.17617221
  entropy T*S    EENTRO =        -0.00000000
  eigenvalues    EBANDS =      -139.79903563
  atomic energy  EATOM  =      4051.30602026
  Solvation  Ediel_sol  =         0.00000000
  ---------------------------------------------------
  free energy    TOTEN  =       -14.21805283 eV

  energy without entropy =      -14.21805283  energy(sigma->0) =      -14.21805283


--------------------------------------------------------------------------------------------------------




--------------------------------------- Iteration      1(   4)  ---------------------------------------


     EDDAV:  cpu time     12.8991: real time     13.7954
       DOS:  cpu time      0.0002: real time      0.0002
    --------------------------------------------
      LOOP:  cpu time     12.8993: real time     13.7956

 eigenvalue-minimisations  :  1568
 total energy-change (2. order) :-0.1368052E+00  (-0.1367840E+00)
 number of electron      36.0000000 magnetization 
 augmentation part       36.0000000 magnetization 

 Free energy of the ion-electron system (eV)
  ---------------------------------------------------
  alpha Z        PSCENC =       124.19211853
  Ewald energy   TEWEN  =     -2387.15693164
  -Hartree energ DENC   =     -1451.56783543
  -exchange      EXHF   =         0.00000000
  -V(xc)+E(xc)   XCENC  =       137.55721557
  PAW double counting   =      3345.42656771    -3694.17617221
  entropy T*S    EENTRO =        -0.00000000
  eigenvalues    EBANDS =      -139.93584088
  atomic energy  EATOM  =      4051.30602026
  Solvation  Ediel_sol  =         0.00000000
  ---------------------------------------------------
  free energy    TOTEN  =       -14.35485807 eV

  energy without entropy =      -14.35485807  energy(sigma->0) =      -14.35485807


--------------------------------------------------------------------------------------------------------




--------------------------------------- Iteration      1(   5)  ---------------------------------------


     EDDAV:  cpu time     12.7114: real time     13.9566
       DOS:  cpu time      0.0001: real time      0.0001
    CHARGE:  cpu time      0.2389: real time      0.2022
    MIXING:  cpu time      0.0053: real time      0.0056
    --------------------------------------------
      LOOP:  cpu time     12.9557: real time     14.1645

 eigenvalue-minimisations  :  1526
 total energy-change (2. order) :-0.2216616E-02  (-0.2216600E-02)
 number of electron      36.0000002 magnetization 
 augmentation part       14.3391227 magnetization 

 Broyden mixing:
  rms(total) = 0.75881E+00    rms(broyden)= 0.75880E+00
  rms(prec ) = 0.10554E+01
  weight for this iteration     100.00

 Free energy of the ion-electron system (eV)
  ---------------------------------------------------
  alpha Z        PSCENC =       124.19211853
  Ewald energy   TEWEN  =     -2387.15693164
  -Hartree energ DENC   =     -1451.56783543
  -exchange      EXHF   =         0.00000000
  -V(xc)+E(xc)   XCENC  =       137.55721557
  PAW double counting   =      3345.42656771    -3694.17617221
  entropy T*S    EENTRO =        -0.00000000
  eigenvalues    EBANDS =      -139.93805749
  atomic energy  EATOM  =      4051.30602026
  Solvation  Ediel_sol  =         0.00000000
  ---------------------------------------------------
  free energy    TOTEN  =       -14.35707469 eV

  energy without entropy =      -14.35707469  energy(sigma->0) =      -14.35707469


--------------------------------------------------------------------------------------------------------




--------------------------------------- Iteration      1(   6)  ---------------------------------------


    POTLOK:  cpu time      0.1131: real time      0.0972
    SETDIJ:  cpu time      0.0043: real time      0.0051
     EDDAV:  cpu time     11.3646: real time     12.5524
       DOS:  cpu time      0.0002: real time      0.0002
    CHARGE:  cpu time      0.1969: real time      0.2060
    MIXING:  cpu time      0.0079: real time      0.0069
    --------------------------------------------
      LOOP:  cpu time     11.6869: real time     12.8679

 eigenvalue-minimisations  :  1582
 total energy-change (2. order) : 0.8616303E+00  (-0.1964079E+00)
 number of electron      36.0000001 magnetization 
 augmentation part       14.5403303 magnetization 

 Broyden mixing:
  rms(total) = 0.60362E+00    rms(broyden)= 0.60361E+00
  rms(prec ) = 0.64916E+00
  weight for this iteration     100.00

 eigenvalues of (default mixing * dielectric matrix)
  average eigenvalue GAMMA=   1.5807
  1.5807

 Free energy of the ion-electron system (eV)
  ---------------------------------------------------
  alpha Z        PSCENC =       124.19211853
  Ewald energy   TEWEN  =     -2387.15693164
  -Hartree energ DENC   =     -1439.80081750
  -exchange      EXHF   =         0.00000000
  -V(xc)+E(xc)   XCENC  =       137.66706494
  PAW double counting   =      3526.74140780    -3870.39139085
  entropy T*S    EENTRO =        -0.00000000
  eigenvalues    EBANDS =      -156.05291592
  atomic energy  EATOM  =      4051.30602026
  Solvation  Ediel_sol  =         0.00000000
  ---------------------------------------------------
  free energy    TOTEN  =       -13.49544437 eV

  energy without entropy =      -13.49544437  energy(sigma->0) =      -13.49544437


--------------------------------------------------------------------------------------------------------




--------------------------------------- Iteration      1(   7)  ---------------------------------------


    POTLOK:  cpu time      0.1292: real time      0.1404
    SETDIJ:  cpu time      0.0353: real time      0.0338
     EDDAV:  cpu time     10.0713: real time     12.5183
       DOS:  cpu time      0.0002: real time      0.0002
    CHARGE:  cpu time      0.2217: real time      0.2511
    MIXING:  cpu time      0.0106: real time      0.0113
    --------------------------------------------
      LOOP:  cpu time     10.4682: real time     12.9551

 eigenvalue-minimisations  :  1316
 total energy-change (2. order) : 0.2539340E-01  (-0.6134860E-01)
 number of electron      36.0000001 magnetization 
 augmentation part       14.5185321 magnetization 

 Broyden mixing:
  rms(total) = 0.31136E+00    rms(broyden)= 0.31136E+00
  rms(prec ) = 0.32514E+00
  weight for this iteration     100.00

 eigenvalues of (default mixing * dielectric matrix)
  average eigenvalue GAMMA=   1.6847
  0.9909  2.3784

 Free energy of the ion-electron system (eV)
  ---------------------------------------------------
  alpha Z        PSCENC =       124.19211853
  Ewald energy   TEWEN  =     -2387.15693164
  -Hartree energ DENC   =     -1441.59717478
  -exchange      EXHF   =         0.00000000
  -V(xc)+E(xc)   XCENC  =       138.05307088
  PAW double counting   =      3781.51800575    -4128.65144445
  entropy T*S    EENTRO =        -0.00000000
  eigenvalues    EBANDS =      -151.13371553
  atomic energy  EATOM  =      4051.30602026
  Solvation  Ediel_sol  =         0.00000000
  ---------------------------------------------------
  free energy    TOTEN  =       -13.47005097 eV

  energy without entropy =      -13.47005097  energy(sigma->0) =      -13.47005097


--------------------------------------------------------------------------------------------------------




--------------------------------------- Iteration      1(   8)  ---------------------------------------


    POTLOK:  cpu time      0.1204: real time      0.1265
    SETDIJ:  cpu time      0.0050: real time      0.0051
     EDDAV:  cpu time     10.9851: real time     12.6573
       DOS:  cpu time      0.0003: real time      0.0003
    CHARGE:  cpu time      0.2791: real time      0.2142
    MIXING:  cpu time      0.0087: real time      0.0074
    --------------------------------------------
      LOOP:  cpu time     11.3985: real time     13.0108

 eigenvalue-minimisations  :  1344
 total energy-change (2. order) : 0.7603743E-03  (-0.1533414E-02)
 number of electron      36.0000001 magnetization 
 augmentation part       14.5092543 magnetization 

 Broyden mixing:
  rms(total) = 0.58697E-01    rms(broyden)= 0.58697E-01
  rms(prec ) = 0.65447E-01
  weight for this iteration     100.00

 eigenvalues of (default mixing * dielectric matrix)
  average eigenvalue GAMMA=   1.5195
  2.3725  1.0930  1.0930

 Free energy of the ion-electron system (eV)
  ---------------------------------------------------
  alpha Z        PSCENC =       124.19211853
  Ewald energy   TEWEN  =     -2387.15693164
  -Hartree energ DENC   =     -1440.38633612
  -exchange      EXHF   =         0.00000000
  -V(xc)+E(xc)   XCENC  =       138.10384165
  PAW double counting   =      4002.78858293    -4351.12843288
  entropy T*S    EENTRO =        -0.00000000
  eigenvalues    EBANDS =      -151.18815332
  atomic energy  EATOM  =      4051.30602026
  Solvation  Ediel_sol  =         0.00000000
  ---------------------------------------------------
  free energy    TOTEN  =       -13.46929060 eV

  energy without entropy =      -13.46929060  energy(sigma->0) =      -13.46929060


--------------------------------------------------------------------------------------------------------




--------------------------------------- Iteration      1(   9)  ---------------------------------------


    POTLOK:  cpu time      0.1205: real time      0.1543
    SETDIJ:  cpu time      0.0147: real time      0.0146
     EDDAV:  cpu time     13.0283: real time     14.4459
       DOS:  cpu time      0.0002: real time      0.0002
    CHARGE:  cpu time      0.2341: real time      0.1969
    MIXING:  cpu time      0.0078: real time      0.0070
    --------------------------------------------
      LOOP:  cpu time     13.4056: real time     14.8189

 eigenvalue-minimisations  :  1498
 total energy-change (2. order) :-0.6073071E-03  (-0.1887837E-03)
 number of electron      36.0000001 magnetization 
 augmentation part       14.5126912 magnetization 

 Broyden mixing:
  rms(total) = 0.13221E-01    rms(broyden)= 0.13221E-01
  rms(prec ) = 0.15494E-01
  weight for this iteration     100.00

 eigenvalues of (default mixing * dielectric matrix)
  average eigenvalue GAMMA=   1.5108
  2.2053  1.1240  1.1240  1.5898

 Free energy of the ion-electron system (eV)
  ---------------------------------------------------
  alpha Z        PSCENC =       124.19211853
  Ewald energy   TEWEN  =     -2387.15693164
  -Hartree energ DENC   =     -1439.69034953
  -exchange      EXHF   =         0.00000000
  -V(xc)+E(xc)   XCENC  =       138.10340889
  PAW double counting   =      4058.06004251    -4406.44158843
  entropy T*S    EENTRO =        -0.00000000
  eigenvalues    EBANDS =      -151.84261850
  atomic energy  EATOM  =      4051.30602026
  Solvation  Ediel_sol  =         0.00000000
  ---------------------------------------------------
  free energy    TOTEN  =       -13.46989791 eV

  energy without entropy =      -13.46989791  energy(sigma->0) =      -13.46989791


--------------------------------------------------------------------------------------------------------




--------------------------------------- Iteration      1(  10)  ---------------------------------------


    POTLOK:  cpu time      0.1156: real time      0.1130
    SETDIJ:  cpu time      0.0046: real time      0.0043
     EDDAV:  cpu time     10.4730: real time     11.1827
       DOS:  cpu time      0.0002: real time      0.0005
    CHARGE:  cpu time      0.2204: real time      0.1995
    MIXING:  cpu time      0.0078: real time      0.0070
    --------------------------------------------
      LOOP:  cpu time     10.8215: real time     11.5069

 eigenvalue-minimisations  :  1288
 total energy-change (2. order) :-0.3254183E-03  (-0.3857867E-04)
 number of electron      36.0000001 magnetization 
 augmentation part       14.5123147 magnetization 

 Broyden mixing:
  rms(total) = 0.49130E-02    rms(broyden)= 0.49130E-02
  rms(prec ) = 0.67613E-02
  weight for this iteration     100.00

 eigenvalues of (default mixing * dielectric matrix)
  average eigenvalue GAMMA=   1.7334
  2.9262  2.6007  1.1021  1.1021  0.9356

 Free energy of the ion-electron system (eV)
  ---------------------------------------------------
  alpha Z        PSCENC =       124.19211853
  Ewald energy   TEWEN  =     -2387.15693164
  -Hartree energ DENC   =     -1439.83996333
  -exchange      EXHF   =         0.00000000
  -V(xc)+E(xc)   XCENC  =       138.10773117
  PAW double counting   =      4044.69003782    -4393.10226555
  entropy T*S    EENTRO =        -0.00000000
  eigenvalues    EBANDS =      -151.66697057
  atomic energy  EATOM  =      4051.30602026
  Solvation  Ediel_sol  =         0.00000000
  ---------------------------------------------------
  free energy    TOTEN  =       -13.47022332 eV

  energy without entropy =      -13.47022332  energy(sigma->0) =      -13.47022332


--------------------------------------------------------------------------------------------------------




--------------------------------------- Iteration      1(  11)  ---------------------------------------


    POTLOK:  cpu time      0.1171: real time      0.1091
    SETDIJ:  cpu time      0.0029: real time      0.0046
     EDDAV:  cpu time     14.5276: real time     19.1970
       DOS:  cpu time      0.0002: real time      0.0002
    CHARGE:  cpu time      0.2137: real time      0.1980
    MIXING:  cpu time      0.0068: real time      0.0069
    --------------------------------------------
      LOOP:  cpu time     14.8682: real time     19.5158

 eigenvalue-minimisations  :  1386
 total energy-change (2. order) :-0.1185973E-03  (-0.1559556E-04)
 number of electron      36.0000001 magnetization 
 augmentation part       14.5125201 magnetization 

 Broyden mixing:
  rms(total) = 0.12266E-02    rms(broyden)= 0.12266E-02
  rms(prec ) = 0.13833E-02
  weight for this iteration     100.00

 eigenvalues of (default mixing * dielectric matrix)
  average eigenvalue GAMMA=   1.7001
  2.8862  2.1026  2.1026  0.9275  1.0908  1.0908

 Free energy of the ion-electron system (eV)
  ---------------------------------------------------
  alpha Z        PSCENC =       124.19211853
  Ewald energy   TEWEN  =     -2387.15693164
  -Hartree energ DENC   =     -1439.90307810
  -exchange      EXHF   =         0.00000000
  -V(xc)+E(xc)   XCENC  =       138.11348756
  PAW double counting   =      4040.94056742    -4389.37097310
  entropy T*S    EENTRO =        -0.00000000
  eigenvalues    EBANDS =      -151.59155285
  atomic energy  EATOM  =      4051.30602026
  Solvation  Ediel_sol  =         0.00000000
  ---------------------------------------------------
  free energy    TOTEN  =       -13.47034192 eV

  energy without entropy =      -13.47034192  energy(sigma->0) =      -13.47034192


--------------------------------------------------------------------------------------------------------




--------------------------------------- Iteration      1(  12)  ---------------------------------------


    POTLOK:  cpu time      0.1410: real time      0.1346
    SETDIJ:  cpu time      0.0066: real time      0.0058
     EDDAV:  cpu time     11.5221: real time     12.2054
       DOS:  cpu time      0.0002: real time      0.0002
    CHARGE:  cpu time      0.2467: real time      0.1988
    MIXING:  cpu time      0.0057: real time      0.0057
    --------------------------------------------
      LOOP:  cpu time     11.9223: real time     12.5504

 eigenvalue-minimisations  :  1442
 total energy-change (2. order) :-0.1516968E-05  (-0.7684692E-06)
 number of electron      36.0000001 magnetization 
 augmentation part       14.5125494 magnetization 

 Broyden mixing:
  rms(total) = 0.10622E-02    rms(broyden)= 0.10622E-02
  rms(prec ) = 0.11492E-02
  weight for this iteration     100.00

 eigenvalues of (default mixing * dielectric matrix)
  average eigenvalue GAMMA=   1.8303
  3.5520  2.7303  2.3578  1.2097  1.0202  1.0202  0.9219

 Free energy of the ion-electron system (eV)
  ---------------------------------------------------
  alpha Z        PSCENC =       124.19211853
  Ewald energy   TEWEN  =     -2387.15693164
  -Hartree energ DENC   =     -1439.90784608
  -exchange      EXHF   =         0.00000000
  -V(xc)+E(xc)   XCENC  =       138.11485052
  PAW double counting   =      4043.22788435    -4391.65731240
  entropy T*S    EENTRO =        -0.00000000
  eigenvalues    EBANDS =      -151.58912698
  atomic energy  EATOM  =      4051.30602026
  Solvation  Ediel_sol  =         0.00000000
  ---------------------------------------------------
  free energy    TOTEN  =       -13.47034344 eV

  energy without entropy =      -13.47034344  energy(sigma->0) =      -13.47034344


--------------------------------------------------------------------------------------------------------




--------------------------------------- Iteration      1(  13)  ---------------------------------------


    POTLOK:  cpu time      0.1063: real time      0.1405
    SETDIJ:  cpu time      0.0026: real time      0.0050
     EDDAV:  cpu time     12.8093: real time     14.3529
       DOS:  cpu time      0.0001: real time      0.0001
    CHARGE:  cpu time      0.3408: real time      0.3056
    MIXING:  cpu time      0.0058: real time      0.0061
    --------------------------------------------
      LOOP:  cpu time     13.2648: real time     14.8102

 eigenvalue-minimisations  :  1330
 total energy-change (2. order) :-0.1575718E-05  (-0.3476626E-06)
 number of electron      36.0000001 magnetization 
 augmentation part       14.5125505 magnetization 

 Broyden mixing:
  rms(total) = 0.48857E-03    rms(broyden)= 0.48857E-03
  rms(prec ) = 0.50003E-03
  weight for this iteration     100.00

 eigenvalues of (default mixing * dielectric matrix)
  average eigenvalue GAMMA=   1.6626
  3.3039  2.7383  2.3752  1.2514  1.0378  1.0378  0.8870  0.6697

 Free energy of the ion-electron system (eV)
  ---------------------------------------------------
  alpha Z        PSCENC =       124.19211853
  Ewald energy   TEWEN  =     -2387.15693164
  -Hartree energ DENC   =     -1439.93208292
  -exchange      EXHF   =         0.00000000
  -V(xc)+E(xc)   XCENC  =       138.11499288
  PAW double counting   =      4041.84824270    -4390.26809194
  entropy T*S    EENTRO =        -0.00000000
  eigenvalues    EBANDS =      -151.57461287
  atomic energy  EATOM  =      4051.30602026
  Solvation  Ediel_sol  =         0.00000000
  ---------------------------------------------------
  free energy    TOTEN  =       -13.47034501 eV

  energy without entropy =      -13.47034501  energy(sigma->0) =      -13.47034501


--------------------------------------------------------------------------------------------------------




--------------------------------------- Iteration      1(  14)  ---------------------------------------


    POTLOK:  cpu time      0.1469: real time      0.1769
    SETDIJ:  cpu time      0.0271: real time      0.0278
     EDDAV:  cpu time      9.5619: real time     10.7715
       DOS:  cpu time      0.0001: real time      0.0001
    --------------------------------------------
      LOOP:  cpu time      9.7359: real time     10.9763

 eigenvalue-minimisations  :   966
 total energy-change (2. order) : 0.7170411E-07  (-0.1075335E-07)
 number of electron      36.0000001 magnetization 
 augmentation part       14.5125505 magnetization 

 Free energy of the ion-electron system (eV)
  ---------------------------------------------------
  alpha Z        PSCENC =       124.19211853
  Ewald energy   TEWEN  =     -2387.15693164
  -Hartree energ DENC   =     -1439.93035647
  -exchange      EXHF   =         0.00000000
  -V(xc)+E(xc)   XCENC  =       138.11490277
  PAW double counting   =      4042.07967212    -4390.49965661
  entropy T*S    EENTRO =        -0.00000000
  eigenvalues    EBANDS =      -151.57611389
  atomic energy  EATOM  =      4051.30602026
  Solvation  Ediel_sol  =         0.00000000
  ---------------------------------------------------
  free energy    TOTEN  =       -13.47034494 eV

  energy without entropy =      -13.47034494  energy(sigma->0) =      -13.47034494


--------------------------------------------------------------------------------------------------------




 average (electrostatic) potential at core
  the test charge radii are     0.9521  0.9698
  (the norm of the test charge is              1.0000)
       1 -37.2248       2 -37.2248       3 -89.5155       4 -89.5155



 E-fermi :   1.0387     XC(G=0):  -8.9668     alpha+bet : -6.9823

 val. band max:        0.9033394714   @ k =   0.0000   0.0000   0.0000
 cond. band min:       2.4642319086   @ k =   0.0000   0.0000   0.0000
 fundamental gap:      1.5608924372
 Fermi energy:         1.0386966951

 k-point     1 :       0.0000    0.0000    0.0000
  band No.  band energies     occupation 
      1     -11.3669      2.00000
      2     -10.6757      2.00000
      3      -4.9887      2.00000
      4      -4.9797      2.00000
      5      -4.9797      2.00000
      6      -4.9197      2.00000
      7      -4.9197      2.00000
      8      -4.6746      2.00000
      9      -4.6746      2.00000
     10      -4.6230      2.00000
     11      -4.6230      2.00000
     12      -4.4979      2.00000
     13      -3.5441      2.00000
     14       0.2037      2.00000
     15       0.2037      2.00000
     16       0.8425      2.00000
     17       0.9033      2.00000
     18       0.9033      2.00000
     19       2.4642      0.00000
     20       3.7255      0.00000
     21       7.2664      0.00000
     22       7.2665      0.00000
     23       7.5131      0.00000
     24       8.4786      0.00000
     25       8.4786      0.00000
     26       9.4196      0.00000
     27      10.8938      0.00000
     28      10.8938      0.00000

 k-point     2 :       0.1667    0.0000    0.0000
  band No.  band energies     occupation 
      1     -11.2278      2.00000
      2     -10.6028      2.00000
      3      -4.9759      2.00000
      4      -4.9598      2.00000
      5      -4.9551      2.00000
      6      -4.8960      2.00000
      7      -4.8832      2.00000
      8      -4.6888      2.00000
      9      -4.6737      2.00000
     10      -4.6545      2.00000
     11      -4.6180      2.00000
     12      -4.4680      2.00000
     13      -3.3533      2.00000
     14      -0.8174      2.00000
     15      -0.3360      2.00000
     16      -0.1031      2.00000
     17       0.6540      2.00000
     18       0.7284      2.00000
     19       3.6058      0.00000
     20       4.6202      0.00000
     21       6.6999      0.00000
     22       7.6507      0.00000
     23       7.6793      0.00000
     24       8.3431      0.00000
     25       8.9071      0.00000
     26       9.1485      0.00000
     27       9.8339      0.00000
     28      10.6611      0.00000

 k-point     3 :       0.3333    0.0000    0.0000
  band No.  band energies     occupation 
      1     -10.9012      2.00000
      2     -10.4744      2.00000
      3      -4.9485      2.00000
      4      -4.9166      2.00000
      5      -4.8929      2.00000
      6      -4.8079      2.00000
      7      -4.7986      2.00000
      8      -4.7207      2.00000
      9      -4.6668      2.00000
     10      -4.6534      2.00000
     11      -4.6071      2.00000
     12      -4.4097      2.00000
     13      -3.1166      2.00000
     14      -2.0547      2.00000
     15      -1.6834      2.00000
     16      -0.6193      2.00000
     17       0.0883      2.00000
     18       0.3795      2.00000
     19       4.5398      0.00000
     20       4.7827      0.00000
     21       6.4865      0.00000
     22       7.3302      0.00000
     23       7.9108      0.00000
     24       9.1198      0.00000
     25       9.2964      0.00000
     26       9.9811      0.00000
     27      10.7224      0.00000
     28      11.7414      0.00000

 k-point     4 :       0.5000    0.0000    0.0000
  band No.  band energies     occupation 
      1     -10.6828      2.00000
      2     -10.4470      2.00000
      3      -4.9429      2.00000
      4      -4.9041      2.00000
      5      -4.7889      2.00000
      6      -4.7846      2.00000
      7      -4.7712      2.00000
      8      -4.7187      2.00000
      9      -4.6316      2.00000
     10      -4.5993      2.00000
     11      -4.5205      2.00000
     12      -4.4807      2.00000
     13      -3.2877      2.00000
     14      -2.6680      2.00000
     15      -1.7218      2.00000
     16      -0.8491      2.00000
     17      -0.3984      2.00000
     18       0.2120      2.00000
     19       4.6100      0.00000
     20       4.7237      0.00000
     21       6.1068      0.00000
     22       7.6833      0.00000
     23       7.8473      0.00000
     24       9.1247      0.00000
     25       9.5485      0.00000
     26      11.6601      0.00000
     27      11.9126      0.00000
     28      12.7162      0.00000

 k-point     5 :       0.1667    0.1667    0.0000
  band No.  band energies     occupation 
      1     -10.9924      2.00000
      2     -10.5020      2.00000
      3      -4.9391      2.00000
      4      -4.9321      2.00000
      5      -4.9093      2.00000
      6      -4.8554      2.00000
      7      -4.8172      2.00000
      8      -4.7003      2.00000
      9      -4.6775      2.00000
     10      -4.6680      2.00000
     11      -4.6093      2.00000
     12      -4.4241      2.00000
     13      -3.1118      2.00000
     14      -1.5407      2.00000
     15      -1.5245      2.00000
     16      -0.7003      2.00000
     17       0.2405      2.00000
     18       0.2964      2.00000
     19       4.6047      0.00000
     20       5.4808      0.00000
     21       6.5696      0.00000
     22       6.8451      0.00000
     23       8.0532      0.00000
     24       8.2737      0.00000
     25       9.3504      0.00000
     26       9.4117      0.00000
     27      10.7102      0.00000
     28      10.8315      0.00000

 k-point     6 :       0.3333    0.1667    0.0000
  band No.  band energies     occupation 
      1     -10.6910      2.00000
      2     -10.4428      2.00000
      3      -4.9408      2.00000
      4      -4.8899      2.00000
      5      -4.8031      2.00000
      6      -4.7797      2.00000
      7      -4.7407      2.00000
      8      -4.7080      2.00000
      9      -4.6604      2.00000
     10      -4.6485      2.00000
     11      -4.5727      2.00000
     12      -4.3901      2.00000
     13      -3.1381      2.00000
     14      -2.4918      2.00000
     15      -1.6920      2.00000
     16      -1.2932      2.00000
     17      -0.3349      2.00000
     18      -0.2389      2.00000
     19       5.2907      0.00000
     20       5.5837      0.00000
     21       6.0005      0.00000
     22       7.5586      0.00000
     23       7.8452      0.00000
     24       9.1317      0.00000
     25       9.8466      0.00000
     26       9.8659      0.00000
     27      11.4524      0.00000
     28      11.7652      0.00000

 k-point     7 :       0.3333    0.3333    0.0000
  band No.  band energies     occupation 
      1     -10.5056      2.00000
      2     -10.5056      2.00000
      3      -4.9510      2.00000
      4      -4.8230      2.00000
      5      -4.8230      2.00000
      6      -4.7528      2.00000
      7      -4.6917      2.00000
      8      -4.6917      2.00000
      9      -4.6667      2.00000
     10      -4.6438      2.00000
     11      -4.4507      2.00000
     12      -4.4507      2.00000
     13      -2.8398      2.00000
     14      -2.8398      2.00000
     15      -2.1351      2.00000
     16      -0.9312      2.00000
     17      -0.9312      2.00000
     18      -0.7421      2.00000
     19       5.5580      0.00000
     20       6.1006      0.00000
     21       6.1006      0.00000
     22       8.5143      0.00000
     23       8.6748      0.00000
     24       8.6748      0.00000
     25       9.6950      0.00000
     26       9.6950      0.00000
     27      10.8908      0.00000
     28      11.8393      0.00000

 k-point     8 :       0.0000    0.0000    0.2500
  band No.  band energies     occupation 
      1     -11.2765      2.00000
      2     -10.7895      2.00000
      3      -4.9827      2.00000
      4      -4.9733      2.00000
      5      -4.9733      2.00000
      6      -4.9309      2.00000
      7      -4.9309      2.00000
      8      -4.7345      2.00000
      9      -4.6653      2.00000
     10      -4.6653      2.00000
     11      -4.6287      2.00000
     12      -4.6287      2.00000
     13      -2.9061      2.00000
     14      -0.1869      2.00000
     15       0.2996      2.00000
     16       0.2996      2.00000
     17       0.7935      2.00000
     18       0.7935      2.00000
     19       3.3617      0.00000
     20       3.8468      0.00000
     21       7.1596      0.00000
     22       7.3600      0.00000
     23       7.3600      0.00000
     24       8.1862      0.00000
     25       8.1862      0.00000
     26       8.6401      0.00000
     27      11.3973      0.00000
     28      11.3973      0.00000

 k-point     9 :       0.1667    0.0000    0.2500
  band No.  band energies     occupation 
      1     -11.1445      2.00000
      2     -10.7035      2.00000
      3      -4.9752      2.00000
      4      -4.9516      2.00000
      5      -4.9465      2.00000
      6      -4.9070      2.00000
      7      -4.8957      2.00000
      8      -4.7469      2.00000
      9      -4.6721      2.00000
     10      -4.6646      2.00000
     11      -4.6252      2.00000
     12      -4.5930      2.00000
     13      -2.8144      2.00000
     14      -0.8595      2.00000
     15      -0.5971      2.00000
     16       0.0078      2.00000
     17       0.4082      2.00000
     18       0.5935      2.00000
     19       4.0838      0.00000
     20       4.7251      0.00000
     21       6.6389      0.00000
     22       7.2144      0.00000
     23       7.8096      0.00000
     24       7.8321      0.00000
     25       8.8311      0.00000
     26       8.8490      0.00000
     27      10.4721      0.00000
     28      11.1308      0.00000

 k-point    10 :       0.3333    0.0000    0.2500
  band No.  band energies     occupation 
      1     -10.8404      2.00000
      2     -10.5384      2.00000
      3      -4.9515      2.00000
      4      -4.9025      2.00000
      5      -4.9014      2.00000
      6      -4.8242      2.00000
      7      -4.8049      2.00000
      8      -4.7511      2.00000
      9      -4.6555      2.00000
     10      -4.6480      2.00000
     11      -4.6157      2.00000
     12      -4.5026      2.00000
     13      -2.9954      2.00000
     14      -2.2042      2.00000
     15      -1.3682      2.00000
     16      -0.4886      2.00000
     17       0.0926      2.00000
     18       0.2131      2.00000
     19       4.3053      0.00000
     20       4.9278      0.00000
     21       6.6117      0.00000
     22       6.7361      0.00000
     23       8.2762      0.00000
     24       8.8164      0.00000
     25       9.1677      0.00000
     26      10.2177      0.00000
     27      10.4218      0.00000
     28      11.9840      0.00000

 k-point    11 :       0.5000    0.0000    0.2500
  band No.  band energies     occupation 
      1     -10.6459      2.00000
      2     -10.4787      2.00000
      3      -4.9477      2.00000
      4      -4.8849      2.00000
      5      -4.8553      2.00000
      6      -4.7899      2.00000
      7      -4.7738      2.00000
      8      -4.7059      2.00000
      9      -4.6293      2.00000
     10      -4.6079      2.00000
     11      -4.5126      2.00000
     12      -4.4764      2.00000
     13      -3.3842      2.00000
     14      -2.9267      2.00000
     15      -1.2204      2.00000
     16      -0.7104      2.00000
     17      -0.1914      2.00000
     18       0.0343      2.00000
     19       4.2397      0.00000
     20       4.6726      0.00000
     21       6.4917      0.00000
     22       6.6573      0.00000
     23       8.2885      0.00000
     24       8.8053      0.00000
     25       9.9140      0.00000
     26      10.9517      0.00000
     27      11.9171      0.00000
     28      13.2412      0.00000

 k-point    12 :       0.1667    0.1667    0.2500
  band No.  band energies     occupation 
      1     -10.9242      2.00000
      2     -10.5775      2.00000
      3      -4.9360      2.00000
      4      -4.9278      2.00000
      5      -4.9034      2.00000
      6      -4.8649      2.00000
      7      -4.8320      2.00000
      8      -4.7506      2.00000
      9      -4.6778      2.00000
     10      -4.6538      2.00000
     11      -4.6163      2.00000
     12      -4.5292      2.00000
     13      -2.8331      2.00000
     14      -1.7907      2.00000
     15      -1.2003      2.00000
     16      -0.6321      2.00000
     17       0.0670      2.00000
     18       0.2445      2.00000
     19       4.6445      0.00000
     20       5.4951      0.00000
     21       6.6129      0.00000
     22       6.7852      0.00000
     23       7.7673      0.00000
     24       8.0725      0.00000
     25       8.9912      0.00000
     26       9.6660      0.00000
     27      10.8203      0.00000
     28      11.1638      0.00000

 k-point    13 :       0.3333    0.1667    0.2500
  band No.  band energies     occupation 
      1     -10.6525      2.00000
      2     -10.4765      2.00000
      3      -4.9264      2.00000
      4      -4.8920      2.00000
      5      -4.8363      2.00000
      6      -4.7952      2.00000
      7      -4.7526      2.00000
      8      -4.7274      2.00000
      9      -4.6500      2.00000
     10      -4.6415      2.00000
     11      -4.5579      2.00000
     12      -4.4251      2.00000
     13      -3.2006      2.00000
     14      -2.7268      2.00000
     15      -1.3984      2.00000
     16      -0.9692      2.00000
     17      -0.4668      2.00000
     18      -0.1031      2.00000
     19       4.8454      0.00000
     20       5.5080      0.00000
     21       6.5234      0.00000
     22       6.9066      0.00000
     23       7.7341      0.00000
     24       8.8671      0.00000
     25       9.5757      0.00000
     26      10.2626      0.00000
     27      11.2307      0.00000
     28      12.1737      0.00000

 k-point    14 :       0.3333    0.3333    0.2500
  band No.  band energies     occupation 
      1     -10.5011      2.00000
      2     -10.5011      2.00000
      3      -4.9236      2.00000
      4      -4.8452      2.00000
      5      -4.8452      2.00000
      6      -4.7780      2.00000
      7      -4.6971      2.00000
      8      -4.6971      2.00000
      9      -4.6684      2.00000
     10      -4.6597      2.00000
     11      -4.4315      2.00000
     12      -4.4315      2.00000
     13      -3.0308      2.00000
     14      -3.0308      2.00000
     15      -1.9575      2.00000
     16      -0.9882      2.00000
     17      -0.5372      2.00000
     18      -0.5372      2.00000
     19       5.6367      0.00000
     20       5.6367      0.00000
     21       6.0683      0.00000
     22       8.0280      0.00000
     23       8.0280      0.00000
     24       8.2726      0.00000
     25      10.4426      0.00000
     26      10.4426      0.00000
     27      10.7192      0.00000
     28      11.1547      0.00000

 k-point    15 :       0.0000    0.0000    0.5000
  band No.  band energies     occupation 
      1     -11.0446      2.00000
      2     -11.0446      2.00000
      3      -4.9545      2.00000
      4      -4.9545      2.00000
      5      -4.9545      2.00000
      6      -4.9545      2.00000
      7      -4.9274      2.00000
      8      -4.9274      2.00000
      9      -4.6452      2.00000
     10      -4.6452      2.00000
     11      -4.6452      2.00000
     12      -4.6452      2.00000
     13      -1.6491      2.00000
     14      -1.6491      2.00000
     15       0.5395      2.00000
     16       0.5395      2.00000
     17       0.5396      2.00000
     18       0.5396      2.00000
     19       3.9932      0.00000
     20       3.9932      0.00000
     21       7.3864      0.00000
     22       7.3864      0.00000
     23       7.6854      0.00000
     24       7.6854      0.00000
     25       7.6854      0.00000
     26       7.6854      0.00000
     27      12.4717      0.00000
     28      12.4717      0.00000

 k-point    16 :       0.1667    0.0000    0.5000
  band No.  band energies     occupation 
      1     -10.9327      2.00000
      2     -10.9327      2.00000
      3      -4.9484      2.00000
      4      -4.9484      2.00000
      5      -4.9230      2.00000
      6      -4.9230      2.00000
      7      -4.9008      2.00000
      8      -4.9008      2.00000
      9      -4.6440      2.00000
     10      -4.6440      2.00000
     11      -4.6411      2.00000
     12      -4.6411      2.00000
     13      -1.8023      2.00000
     14      -1.8023      2.00000
     15      -0.1579      2.00000
     16      -0.1579      2.00000
     17       0.2888      2.00000
     18       0.2888      2.00000
     19       4.7632      0.00000
     20       4.7632      0.00000
     21       6.5641      0.00000
     22       6.5641      0.00000
     23       8.0774      0.00000
     24       8.0774      0.00000
     25       8.2521      0.00000
     26       8.2521      0.00000
     27      11.8647      0.00000
     28      11.8647      0.00000

 k-point    17 :       0.3333    0.0000    0.5000
  band No.  band energies     occupation 
      1     -10.6911      2.00000
      2     -10.6911      2.00000
      3      -4.9350      2.00000
      4      -4.9350      2.00000
      5      -4.8634      2.00000
      6      -4.8634      2.00000
      7      -4.8030      2.00000
      8      -4.8030      2.00000
      9      -4.6334      2.00000
     10      -4.6334      2.00000
     11      -4.6021      2.00000
     12      -4.6021      2.00000
     13      -2.6581      2.00000
     14      -2.6581      2.00000
     15      -0.4698      2.00000
     16      -0.4698      2.00000
     17      -0.1551      2.00000
     18      -0.1551      2.00000
     19       4.6404      0.00000
     20       4.6404      0.00000
     21       6.3821      0.00000
     22       6.3821      0.00000
     23       8.8728      0.00000
     24       8.8728      0.00000
     25       9.1882      0.00000
     26       9.1882      0.00000
     27      11.5815      0.00000
     28      11.5815      0.00000

 k-point    18 :       0.5000    0.0000    0.5000
  band No.  band energies     occupation 
      1     -10.5596      2.00000
      2     -10.5596      2.00000
      3      -4.9306      2.00000
      4      -4.9306      2.00000
      5      -4.8374      2.00000
      6      -4.8374      2.00000
      7      -4.7349      2.00000
      8      -4.7349      2.00000
      9      -4.6215      2.00000
     10      -4.6215      2.00000
     11      -4.4920      2.00000
     12      -4.4920      2.00000
     13      -3.2882      2.00000
     14      -3.2882      2.00000
     15      -0.3970      2.00000
     16      -0.3970      2.00000
     17      -0.3569      2.00000
     18      -0.3569      2.00000
     19       4.3397      0.00000
     20       4.3397      0.00000
     21       6.1751      0.00000
     22       6.1751      0.00000
     23       9.4478      0.00000
     24       9.4478      0.00000
     25       9.4826      0.00000
     26       9.4826      0.00000
     27      12.4390      0.00000
     28      12.4390      0.00000

 k-point    19 :       0.1667    0.1667    0.5000
  band No.  band energies     occupation 
      1     -10.7545      2.00000
      2     -10.7545      2.00000
      3      -4.9201      2.00000
      4      -4.9201      2.00000
      5      -4.8833      2.00000
      6      -4.8833      2.00000
      7      -4.8494      2.00000
      8      -4.8494      2.00000
      9      -4.6429      2.00000
     10      -4.6429      2.00000
     11      -4.6134      2.00000
     12      -4.6134      2.00000
     13      -2.3233      2.00000
     14      -2.3233      2.00000
     15      -0.4408      2.00000
     16      -0.4408      2.00000
     17      -0.2510      2.00000
     18      -0.2510      2.00000
     19       5.1711      0.00000
     20       5.1711      0.00000
     21       6.5130      0.00000
     22       6.5130      0.00000
     23       7.8961      0.00000
     24       7.8961      0.00000
     25       9.0560      0.00000
     26       9.0560      0.00000
     27      11.6724      0.00000
     28      11.6724      0.00000

 k-point    20 :       0.3333    0.1667    0.5000
  band No.  band energies     occupation 
      1     -10.5621      2.00000
      2     -10.5621      2.00000
      3      -4.9036      2.00000
      4      -4.9036      2.00000
      5      -4.8421      2.00000
      6      -4.8421      2.00000
      7      -4.7521      2.00000
      8      -4.7521      2.00000
      9      -4.6404      2.00000
     10      -4.6404      2.00000
     11      -4.5013      2.00000
     12      -4.5013      2.00000
     13      -3.0770      2.00000
     14      -3.0770      2.00000
     15      -0.9432      2.00000
     16      -0.9432      2.00000
     17      -0.2423      2.00000
     18      -0.2423      2.00000
     19       4.9033      0.00000
     20       4.9033      0.00000
     21       6.7008      0.00000
     22       6.7008      0.00000
     23       8.2322      0.00000
     24       8.2322      0.00000
     25       9.6061      0.00000
     26       9.6061      0.00000
     27      11.9867      0.00000
     28      11.9867      0.00000

 k-point    21 :       0.3333    0.3333    0.5000
  band No.  band energies     occupation 
      1     -10.4967      2.00000
      2     -10.4967      2.00000
      3      -4.8678      2.00000
      4      -4.8678      2.00000
      5      -4.8522      2.00000
      6      -4.8522      2.00000
      7      -4.7013      2.00000
      8      -4.7013      2.00000
      9      -4.6701      2.00000
     10      -4.6701      2.00000
     11      -4.4130      2.00000
     12      -4.4130      2.00000
     13      -3.1804      2.00000
     14      -3.1804      2.00000
     15      -1.5047      2.00000
     16      -1.5047      2.00000
     17      -0.1537      2.00000
     18      -0.1537      2.00000
     19       5.1292      0.00000
     20       5.1292      0.00000
     21       7.2658      0.00000
     22       7.2658      0.00000
     23       7.8200      0.00000
     24       7.8200      0.00000
     25      10.5419      0.00000
     26      10.5419      0.00000
     27      10.5628      0.00000
     28      10.5628      0.00000


--------------------------------------------------------------------------------------------------------


 soft charge-density along one line, spin component           1
         0         1         2         3         4         5         6         7         8         9
 total charge-density along one line

 pseudopotential strength for first ion, spin component:           1
-10.555   0.000   0.000  -0.001   0.000 -10.877   0.000   0.000
  0.000 -10.555   0.000  -0.000  -0.001   0.000 -10.878   0.000
  0.000   0.000 -10.553   0.000   0.000   0.000   0.000 -10.876
 -0.001  -0.000   0.000 -10.555   0.000  -0.001  -0.000   0.000
  0.000  -0.001   0.000   0.000 -10.555   0.000  -0.001   0.000
-10.877   0.000   0.000  -0.001   0.000 -11.127   0.000   0.000
  0.000 -10.878   0.000  -0.000  -0.001   0.000 -11.127   0.000
  0.000   0.000 -10.876   0.000   0.000   0.000   0.000 -11.126
[...]
     23       7.7573      0.00000
     24       8.0749      0.00000
     25       8.9858      0.00000
     26       9.6734      0.00000
     27      10.8233      0.00000
     28      11.1591      0.00000

 k-point    13 :       0.3333    0.1667    0.2500
  band No.  band energies     occupation 
      1     -10.6522      2.00000
      2     -10.4766      2.00000
      3      -4.9259      2.00000
      4      -4.8909      2.00000
      5      -4.8348      2.00000
      6      -4.7962      2.00000
      7      -4.7518      2.00000
      8      -4.7281      2.00000
      9      -4.6499      2.00000
     10      -4.6416      2.00000
     11      -4.5583      2.00000
     12      -4.4251      2.00000
     13      -3.2021      2.00000
     14      -2.7316      2.00000
     15      -1.3985      2.00000
     16      -0.9665      2.00000
     17      -0.4737      2.00000
     18      -0.0970      2.00000
     19       4.8490      0.00000
     20       5.5091      0.00000
     21       6.5289      0.00000
     22       6.9040      0.00000
     23       7.7340      0.00000
     24       8.8631      0.00000
     25       9.5759      0.00000
     26      10.2675      0.00000
     27      11.2338      0.00000
     28      12.1775      0.00000

 k-point    14 :       0.3333    0.3333    0.2500
  band No.  band energies     occupation 
      1     -10.5009      2.00000
      2     -10.5009      2.00000
      3      -4.9229      2.00000
      4      -4.8432      2.00000
      5      -4.8432      2.00000
      6      -4.7789      2.00000
      7      -4.6970      2.00000
      8      -4.6969      2.00000
      9      -4.6687      2.00000
     10      -4.6597      2.00000
     11      -4.4314      2.00000
     12      -4.4314      2.00000
     13      -3.0350      2.00000
     14      -3.0350      2.00000
     15      -1.9612      2.00000
     16      -0.9971      2.00000
     17      -0.5306      2.00000
     18      -0.5306      2.00000
     19       5.6392      0.00000
     20       5.6392      0.00000
     21       6.0819      0.00000
     22       8.0218      0.00000
     23       8.0218      0.00000
     24       8.2774      0.00000
     25      10.4388      0.00000
     26      10.4388      0.00000
     27      10.7173      0.00000
     28      11.1586      0.00000

 k-point    15 :       0.0000    0.0000    0.5000
  band No.  band energies     occupation 
      1     -11.0455      2.00000
      2     -11.0455      2.00000
      3      -4.9566      2.00000
      4      -4.9566      2.00000
      5      -4.9566      2.00000
      6      -4.9566      2.00000
      7      -4.9239      2.00000
      8      -4.9239      2.00000
      9      -4.6451      2.00000
     10      -4.6451      2.00000
     11      -4.6451      2.00000
     12      -4.6451      2.00000
     13      -1.6405      2.00000
     14      -1.6405      2.00000
     15       0.5387      2.00000
     16       0.5387      2.00000
     17       0.5387      2.00000
     18       0.5387      2.00000
     19       3.9870      0.00000
     20       3.9870      0.00000
     21       7.3837      0.00000
     22       7.3837      0.00000
     23       7.6822      0.00000
     24       7.6822      0.00000
     25       7.6822      0.00000
     26       7.6822      0.00000
     27      12.4721      0.00000
     28      12.4721      0.00000

 k-point    16 :       0.1667    0.0000    0.5000
  band No.  band energies     occupation 
      1     -10.9334      2.00000
      2     -10.9334      2.00000
      3      -4.9496      2.00000
      4      -4.9496      2.00000
      5      -4.9249      2.00000
      6      -4.9249      2.00000
      7      -4.8987      2.00000
      8      -4.8987      2.00000
      9      -4.6439      2.00000
     10      -4.6439      2.00000
     11      -4.6408      2.00000
     12      -4.6408      2.00000
     13      -1.7955      2.00000
     14      -1.7955      2.00000
     15      -0.1589      2.00000
     16      -0.1589      2.00000
     17       0.2868      2.00000
     18       0.2868      2.00000
     19       4.7607      0.00000
     20       4.7607      0.00000
     21       6.5620      0.00000
     22       6.5620      0.00000
     23       8.0710      0.00000
     24       8.0710      0.00000
     25       8.2522      0.00000
     26       8.2522      0.00000
     27      11.8718      0.00000
     28      11.8718      0.00000

 k-point    17 :       0.3333    0.0000    0.5000
  band No.  band energies     occupation 
      1     -10.6912      2.00000
      2     -10.6912      2.00000
      3      -4.9343      2.00000
      4      -4.9343      2.00000
      5      -4.8645      2.00000
      6      -4.8645      2.00000
      7      -4.8028      2.00000
      8      -4.8028      2.00000
      9      -4.6334      2.00000
     10      -4.6334      2.00000
     11      -4.6019      2.00000
     12      -4.6019      2.00000
     13      -2.6585      2.00000
     14      -2.6585      2.00000
     15      -0.4654      2.00000
     16      -0.4654      2.00000
     17      -0.1590      2.00000
     18      -0.1590      2.00000
     19       4.6429      0.00000
     20       4.6429      0.00000
     21       6.3759      0.00000
     22       6.3759      0.00000
     23       8.8698      0.00000
     24       8.8698      0.00000
     25       9.1974      0.00000
     26       9.1974      0.00000
     27      11.5849      0.00000
     28      11.5849      0.00000

 k-point    18 :       0.5000    0.0000    0.5000
  band No.  band energies     occupation 
      1     -10.5595      2.00000
      2     -10.5595      2.00000
      3      -4.9295      2.00000
      4      -4.9295      2.00000
      5      -4.8381      2.00000
      6      -4.8381      2.00000
      7      -4.7338      2.00000
      8      -4.7338      2.00000
      9      -4.6215      2.00000
     10      -4.6215      2.00000
     11      -4.4922      2.00000
     12      -4.4922      2.00000
     13      -3.2918      2.00000
     14      -3.2918      2.00000
     15      -0.3909      2.00000
     16      -0.3909      2.00000
     17      -0.3617      2.00000
     18      -0.3617      2.00000
     19       4.3436      0.00000
     20       4.3436      0.00000
     21       6.1672      0.00000
     22       6.1672      0.00000
     23       9.4608      0.00000
     24       9.4608      0.00000
     25       9.4850      0.00000
     26       9.4850      0.00000
     27      12.4378      0.00000
     28      12.4378      0.00000

 k-point    19 :       0.1667    0.1667    0.5000
  band No.  band energies     occupation 
      1     -10.7548      2.00000
      2     -10.7548      2.00000
      3      -4.9193      2.00000
      4      -4.9193      2.00000
      5      -4.8847      2.00000
      6      -4.8847      2.00000
      7      -4.8494      2.00000
      8      -4.8494      2.00000
      9      -4.6428      2.00000
     10      -4.6428      2.00000
     11      -4.6132      2.00000
     12      -4.6132      2.00000
     13      -2.3215      2.00000
     14      -2.3215      2.00000
     15      -0.4399      2.00000
     16      -0.4399      2.00000
     17      -0.2529      2.00000
     18      -0.2529      2.00000
     19       5.1748      0.00000
     20       5.1748      0.00000
     21       6.5080      0.00000
     22       6.5080      0.00000
     23       7.8900      0.00000
     24       7.8900      0.00000
     25       9.0615      0.00000
     26       9.0615      0.00000
     27      11.6758      0.00000
     28      11.6758      0.00000

 k-point    20 :       0.3333    0.1667    0.5000
  band No.  band energies     occupation 
      1     -10.5620      2.00000
      2     -10.5620      2.00000
      3      -4.9022      2.00000
      4      -4.9022      2.00000
      5      -4.8422      2.00000
      6      -4.8422      2.00000
      7      -4.7523      2.00000
      8      -4.7523      2.00000
      9      -4.6403      2.00000
     10      -4.6403      2.00000
     11      -4.5014      2.00000
     12      -4.5014      2.00000
     13      -3.0796      2.00000
     14      -3.0796      2.00000
     15      -0.9474      2.00000
     16      -0.9474      2.00000
     17      -0.2377      2.00000
     18      -0.2377      2.00000
     19       4.9081      0.00000
     20       4.9081      0.00000
     21       6.6948      0.00000
     22       6.6948      0.00000
     23       8.2374      0.00000
     24       8.2374      0.00000
     25       9.6058      0.00000
     26       9.6058      0.00000
     27      11.9913      0.00000
     28      11.9913      0.00000

 k-point    21 :       0.3333    0.3333    0.5000
  band No.  band energies     occupation 
      1     -10.4964      2.00000
      2     -10.4964      2.00000
      3      -4.8655      2.00000
      4      -4.8655      2.00000
      5      -4.8522      2.00000
      6      -4.8522      2.00000
      7      -4.7015      2.00000
      8      -4.7015      2.00000
      9      -4.6703      2.00000
     10      -4.6703      2.00000
     11      -4.4128      2.00000
     12      -4.4128      2.00000
     13      -3.1838      2.00000
     14      -3.1838      2.00000
     15      -1.5107      2.00000
     16      -1.5107      2.00000
     17      -0.1480      2.00000
     18      -0.1480      2.00000
     19       5.1329      0.00000
     20       5.1329      0.00000
     21       7.2757      0.00000
     22       7.2757      0.00000
     23       7.8128      0.00000
     24       7.8128      0.00000
     25      10.5422      0.00000
     26      10.5422      0.00000
     27      10.5569      0.00000
     28      10.5569      0.00000


--------------------------------------------------------------------------------------------------------


 soft charge-density along one line, spin component           1
         0         1         2         3         4         5         6         7         8         9
 total charge-density along one line

 pseudopotential strength for first ion, spin component:           1
-10.554   0.000  -0.000  -0.001  -0.000 -10.877   0.000  -0.000
  0.000 -10.555   0.000   0.000  -0.001   0.000 -10.878   0.000
 -0.000   0.000 -10.554   0.000   0.000  -0.000   0.000 -10.876
 -0.001   0.000   0.000 -10.555   0.000  -0.001   0.000   0.000
 -0.000  -0.001   0.000   0.000 -10.554  -0.000  -0.001   0.000
-10.877   0.000  -0.000  -0.001  -0.000 -11.126   0.000  -0.000
  0.000 -10.878   0.000   0.000  -0.001   0.000 -11.128   0.000
 -0.000   0.000 -10.876   0.000   0.000  -0.000   0.000 -11.126
 -0.001   0.000   0.000 -10.878   0.000  -0.001   0.000   0.000
 -0.000  -0.001   0.000   0.000 -10.877  -0.000  -0.001   0.000
  0.000  -0.000  -0.000   0.000  -0.000   0.000  -0.000  -0.000
  0.000  -0.000  -0.000   0.000  -0.000   0.000  -0.000  -0.000
  0.000   0.002  -0.000   0.000  -0.002   0.000   0.001  -0.000
  0.000  -0.000  -0.001   0.000   0.000   0.000  -0.000  -0.001
 -0.002   0.000   0.000   0.002   0.000  -0.001   0.000  -0.000
  0.000   0.002  -0.000   0.000  -0.001   0.000   0.001  -0.000
  0.000  -0.000  -0.001   0.000   0.000   0.000  -0.000  -0.001
 -0.001   0.000   0.000   0.002   0.000  -0.001   0.000   0.000
 total augmentation occupancy for first ion, spin component:           1
  3.181  -0.000  -0.000  -0.507  -0.000  -1.136   0.000   0.000   0.498   0.000  -0.000   0.000  -0.000   0.000  -0.423   0.000
 -0.000   2.812   0.000   0.000  -0.507   0.000  -0.772  -0.000  -0.000   0.498  -0.000   0.000   0.300   0.000   0.000  -0.041
 -0.000   0.000   3.522   0.000  -0.000   0.000  -0.000  -1.466  -0.000   0.000   0.022  -0.003   0.000  -0.503   0.000  -0.000
 -0.507   0.000   0.000   2.812   0.000   0.498  -0.000  -0.000  -0.772  -0.000   0.000  -0.000   0.000   0.000   0.300  -0.000
 -0.000  -0.507  -0.000   0.000   3.181   0.000   0.498   0.000  -0.000  -1.136  -0.000   0.000  -0.423   0.000   0.000   0.058
 -1.136   0.000   0.000   0.498   0.000   1.085  -0.000  -0.000  -0.489  -0.000   0.000  -0.000   0.000  -0.000   0.406  -0.000
  0.000  -0.772  -0.000  -0.000   0.498  -0.000   0.728   0.000   0.000  -0.489   0.000  -0.000  -0.288   0.000  -0.000   0.047
  0.000  -0.000  -1.466  -0.000   0.000  -0.000   0.000   1.404   0.000  -0.000  -0.022   0.004  -0.000   0.483  -0.000   0.000
  0.498  -0.000  -0.000  -0.772  -0.000  -0.489   0.000   0.000   0.728   0.000   0.000   0.000  -0.000   0.000  -0.288   0.000
  0.000   0.498   0.000  -0.000  -1.136  -0.000  -0.489  -0.000   0.000   1.085   0.000  -0.000   0.406  -0.000  -0.000  -0.066
 -0.000  -0.000   0.022   0.000  -0.000   0.000   0.000  -0.022   0.000   0.000   2.107  -0.434  -0.000  -0.005  -0.000   0.000
  0.000   0.000  -0.003  -0.000   0.000  -0.000  -0.000   0.004   0.000  -0.000  -0.434   0.110   0.000   0.002   0.000   0.000
 -0.000   0.300   0.000   0.000  -0.423   0.000  -0.288  -0.000  -0.000   0.406  -0.000   0.000   0.274  -0.000   0.000  -0.045
  0.000   0.000  -0.503  -0.000   0.000  -0.000  -0.000   0.483   0.000  -0.000  -0.005   0.002  -0.000   0.269   0.000  -0.000
 -0.423   0.000   0.000   0.300   0.000   0.406  -0.000  -0.000  -0.288  -0.000  -0.000   0.000   0.000   0.000   0.274  -0.000
  0.000  -0.041  -0.000  -0.000   0.058  -0.000   0.047   0.000   0.000  -0.066  -0.000   0.000  -0.045   0.000  -0.000   0.009
 -0.000   0.000   0.069   0.000  -0.000   0.000   0.000  -0.078   0.000   0.000   0.002  -0.001   0.000  -0.044   0.000   0.000
  0.058  -0.000  -0.000  -0.041  -0.000  -0.066   0.000   0.000   0.047   0.000   0.000   0.000  -0.000   0.000  -0.045   0.000


------------------------ aborting loop because EDIFF is reached ----------------------------------------


    CHARGE:  cpu time      0.2568: real time      0.2207
    FORLOC:  cpu time      0.0260: real time      0.0265
    FORNL :  cpu time      0.1214: real time      0.1320
    STRESS:  cpu time      0.4754: real time      0.5129
    FORCOR:  cpu time      0.1362: real time      0.1431
    FORHAR:  cpu time      0.0224: real time      0.0225
    MIXING:  cpu time      0.0051: real time      0.0055
    OFIELD:  cpu time      0.0000: real time      0.0000

  FORCE on cell =-STRESS in cart. coord.  units (eV):
  Direction    XX          YY          ZZ          XY          YZ          ZX
  --------------------------------------------------------------------------------------
  Alpha Z   124.19212   124.19212   124.19212
  Ewald    -802.81743  -802.81743  -781.47798     0.00000    -0.00000    -0.00000
  Hartree   474.14927   474.14927   491.67615     0.00000    -0.00000    -0.00000
  E(xc)    -186.30646  -186.30646  -186.28533     0.00000     0.00000     0.00000
  Local     -33.91811   -33.91764   -72.82430    -0.00000     0.00000    -0.00000
  n-local    74.25160    79.11043    76.54858     2.60848     0.16293    -0.53900
  augment    45.41833    45.41802    45.47942    -0.00000    -0.00000    -0.00000
  Kinetic   294.65397   303.49630   299.07395     5.74664     0.36330    -0.96825
  Fock        0.00000     0.00000     0.00000     0.00000     0.00000     0.00000
  -------------------------------------------------------------------------------------
  Total      -3.52605    -3.52605    -3.61739     0.00000     0.00000     0.00000
  in kB     -62.04507   -62.04507   -63.65235     0.00000     0.00000     0.00000
  external pressure =      -62.58 kB  Pullay stress =        0.00 kB


 VOLUME and BASIS-vectors are now :
 -----------------------------------------------------------------------------
  energy-cutoff  :      520.00
  volume of cell :       91.05
      direct lattice vectors                 reciprocal lattice vectors
     2.001295222 -3.466345006  0.000000000     0.249838202 -0.144244153  0.000000000
     2.001295222  3.466345006  0.000000000     0.249838202  0.144244153 -0.000000000
     0.000000000  0.000000000  6.562638424    -0.000000000  0.000000000  0.152377738

  length of vectors
     4.002590444  4.002590444  6.562638424     0.288488306  0.288488306  0.152377738


 FORCES acting on ions
    electron-ion (+dipol)            ewald-force                    non-local-force                 convergence-correction
 -----------------------------------------------------------------------------------------------
   -.105E-06 0.855E-06 -.435E+01   -.224E-13 0.467E-11 0.423E+01   0.880E-17 0.503E-17 0.119E+00   0.145E-12 -.370E-09 -.132E-04
   -.105E-06 -.855E-06 -.435E+01   0.354E-14 -.467E-11 0.423E+01   0.192E-17 0.309E-17 0.119E+00   -.195E-12 0.370E-09 -.132E-04
   -.352E-06 -.420E-06 0.415E+01   -.908E-14 0.432E-11 -.423E+01   -.245E-16 0.709E-16 0.817E-01   0.172E-13 0.831E-10 -.733E-04
   -.352E-06 0.420E-06 0.415E+01   0.200E-13 -.432E-11 -.423E+01   0.395E-16 -.538E-16 0.817E-01   -.411E-13 -.831E-10 -.733E-04
 -----------------------------------------------------------------------------------------------
   -.915E-06 -.126E-10 -.401E+00   -.800E-14 0.308E-14 -.178E-14   0.257E-16 0.253E-16 0.402E+00   -.741E-13 0.104E-13 -.173E-03


 POSITION                                       TOTAL-FORCE (eV/Angst)
 -----------------------------------------------------------------------------------
      2.00130      1.15545     -0.00119        -0.000000     -0.000000     -0.000182
      2.00130     -1.15545      3.28013         0.000000      0.000000     -0.000182
      2.00130      1.15545      2.46218         0.000000     -0.000000      0.000182
      2.00130     -1.15545      5.74350         0.000000      0.000000      0.000182
 -----------------------------------------------------------------------------------
    total drift:                               -0.000001     -0.000000      0.000109


--------------------------------------------------------------------------------------------------------



  FREE ENERGIE OF THE ION-ELECTRON SYSTEM (eV)
  ---------------------------------------------------
  free  energy   TOTEN  =       -13.47045746 eV

  energy  without entropy=      -13.47045746  energy(sigma->0) =      -13.47045746

 d Force = 0.5210432E-04[ 0.143E-05, 0.103E-03]  d Energy = 0.5243881E-04-0.334E-06
 d Force =-0.3178298E-01[-0.333E-01,-0.303E-01]  d Ewald  =-0.3178650E-01 0.352E-05


--------------------------------------------------------------------------------------------------------


    POTLOK:  cpu time      0.1715: real time      0.1853


--------------------------------------------------------------------------------------------------------


 Quasi-Newton relaxation of ions (Broydens 2nd method)
  g(Force)  = 0.636E-08   g(Stress)= 0.000E+00

 retain information from N=  1 steps
 eigenvalues of (default step * inverse Hessian matrix)
  average eigenvalue of G=   3.1628
 eigenvalue spectrum of G is  3.1628


--------------------------------------------------------------------------------------------------------


  
 reached required accuracy - stopping structural energy minimisation
 writing wavefunctions
     LOOP+:  cpu time     74.2051: real time     79.3209
    4ORBIT:  cpu time      0.0000: real time      0.0000

 total amount of memory used by VASP MPI-rank0    51703. kBytes
=======================================================================

   base      :      30000. kBytes
   nonl-proj :      15231. kBytes
   fftplans  :       1180. kBytes
   grid      :       3518. kBytes
   one-center:         62. kBytes
   wavefun   :       1712. kBytes

  
  
 General timing and accounting informations for this job:
 ========================================================
  
                  Total CPU time used (sec):      313.165
                            User time (sec):      208.298
                          System time (sec):      104.866
                         Elapsed time (sec):      347.823
  
                   Maximum memory used (kb):    78020608.
                   Average memory used (kb):          N/A
  
                          Minor page faults:        11798
                          Major page faults:          156
                 Voluntary context switches:           18
