72   
4    

1    
  0.0033749968256213  -0.0058456659773597   0.0073781830899067
  -0.0336606500    0.0597412100   -0.0782085900
   0.0014828700   -0.0031624100   -0.0007688700
   0.0004000900   -0.0057059100   -0.0023105400
  -0.0009183700   -0.0018313900   -0.0008101500
   0.0003548300    0.0026785900   -0.0022526300
   0.0004323500   -0.0007518000   -0.0006137000
  -0.0019870100   -0.0014682700   -0.0000386900
   0.0004366300   -0.0007522800   -0.0006132000
   0.0039541200    0.0037816300   -0.0030253400
   0.0000878900   -0.0001522000    0.0021660500
   0.0002927800   -0.0001499000    0.0003083800
   0.0001606400    0.0006159100    0.0009727500
  -0.0001714600    0.0004288400    0.0005539100
   0.0004332200   -0.0002666100    0.0007228400
   0.0000413900   -0.0000748700    0.0005002000
  -0.0003006700   -0.0000592700    0.0002232500
   0.0000445000   -0.0000782900    0.0005037600
  -0.0005266600   -0.0004010000    0.0010512200
   0.0000582800   -0.0044898300    0.0036208400
  -0.0000716500   -0.0008333400    0.0004814300
  -0.0051809600    0.0029138600    0.0005981800
   0.0045772000    0.0024927300    0.0021072300
   0.0006151900    0.0000228100    0.0004943300
  -0.0003298900    0.0001701500    0.0002797900
   0.0004183100   -0.0006336300    0.0004948300
   0.0003434500    0.0002784500    0.0004589000
  -0.0006229900    0.0003937200    0.0003889800
   0.0000690700    0.0026125000   -0.0020376600
   0.0003596800   -0.0005813600    0.0004788700
   0.0009547900   -0.0006242100    0.0062192000
  -0.0015616100   -0.0010596400    0.0020922600
   0.0001981300    0.0002593800    0.0001086700
  -0.0003324600   -0.0003065200    0.0006522000
  -0.0000114900   -0.0003849500    0.0000977800
   0.0003411600   -0.0002178700    0.0008524800
  -0.0002120000    0.0006302000    0.0003806700
   0.0001657400   -0.0002687800    0.0549292900
  -0.0005056500    0.0010500100   -0.0003491700
   0.0005017800    0.0000303600    0.0008410000
  -0.0003756000   -0.0004203200    0.0002670000
  -0.0008155700   -0.0004150100    0.0002329400
  -0.0000422200    0.0000675700    0.0000585600
   0.0005701300    0.0008500900   -0.0003215200
  -0.0001297900    0.0002059100    0.0000766500
   0.0003479300   -0.0005937800    0.0008169000
   0.0003170800   -0.0005565200   -0.0012033900
  -0.0004685800    0.0001610800    0.0003194800
  -0.0000493600    0.0003750200   -0.0012530400
   0.0002288600   -0.0001053300   -0.0002351300
  -0.0000241600   -0.0000664400   -0.0006904000
  -0.0000163000    0.0000201700   -0.0003375200
   0.0005953700    0.0000482800    0.0005559400
  -0.0001217000    0.0001871500   -0.0003953100
  -0.0003352800   -0.0002961900   -0.0014807500
  -0.0000358700    0.0003384800   -0.0012197800
  -0.0001198600    0.0002028800   -0.0003211600
   0.0010583900   -0.0005699600   -0.0019287600
  -0.0007093200   -0.0003129300   -0.0015741700
  -0.0002059900   -0.0000538000   -0.0002896700
   0.0001486700   -0.0000615100   -0.0002762400
  -0.0000193600    0.0001387800   -0.0002809800
  -0.0001126300    0.0000875900   -0.0003799600
   0.0002327400   -0.0001940500   -0.0002811900
  -0.0002104100   -0.0199188000   -0.0076329900
  -0.0006037100    0.0015768800    0.0001606600
   0.0465050100   -0.0267412700    0.0191937800
  -0.0152532600   -0.0084407600    0.0060235900
  -0.0004053700   -0.0001138300    0.0002026200
   0.0002969100    0.0010229400    0.0001615200
   0.0002752100    0.0007955400   -0.0000186200
  -0.0008286600   -0.0003753800    0.0003146500
  -0.0000239100   -0.0006885100    0.0001855300

1    
 -0.0033749968256213   0.0058456659773597  -0.0073781830899067
   0.0359892600   -0.0607181800    0.0772126600
  -0.0014773100    0.0031231500    0.0010073100
  -0.0004284300    0.0057153400    0.0025569800
   0.0009222300    0.0018216300    0.0010601100
  -0.0003495900   -0.0026822600    0.0025006900
  -0.0004333700    0.0007500400    0.0008682800
   0.0019856900    0.0014648300    0.0002860200
  -0.0004284300    0.0007460100    0.0008625500
  -0.0039589600   -0.0037863800    0.0032751300
  -0.0000866900    0.0001471300   -0.0019304000
  -0.0002950700    0.0001428400   -0.0000569100
  -0.0001634400   -0.0006163300   -0.0007207900
   0.0001685800   -0.0004387200   -0.0003064500
  -0.0004341900    0.0002654100   -0.0004712300
  -0.0000407000    0.0000730800   -0.0002535000
   0.0002978700    0.0000594700    0.0000278700
  -0.0000426900    0.0000688400   -0.0002499900
   0.0005193400    0.0003946200   -0.0007991500
  -0.0000710700    0.0044878700   -0.0033194300
   0.0000700100    0.0008255700   -0.0002179600
   0.0051683500   -0.0029117900   -0.0003470500
  -0.0045844100   -0.0024943400   -0.0018353300
  -0.0006094400   -0.0000245300   -0.0002359700
   0.0003223600   -0.0001649400   -0.0000261500
  -0.0004139200    0.0006350500   -0.0002411900
  -0.0003387300   -0.0002760400   -0.0002066100
   0.0006218400   -0.0003915200   -0.0001307000
  -0.0000625500   -0.0026200300    0.0022864200
  -0.0003658200    0.0005762200   -0.0002217200
  -0.0010043700    0.0006520300   -0.0059853100
   0.0015843900    0.0010597900   -0.0018436900
  -0.0002047200   -0.0002596000    0.0001399700
   0.0003214000    0.0003055700   -0.0004037700
   0.0000220800    0.0003820600    0.0001537100
  -0.0003393300    0.0002283200   -0.0005950600
   0.0002106300   -0.0006279600   -0.0001294600
  -0.0003022100    0.0005403200   -0.0533585300
   0.0005047100   -0.0010376800    0.0000805800
  -0.0004943400   -0.0000447800   -0.0010929100
   0.0003844100    0.0004226100   -0.0005260300
   0.0008123500    0.0004116800   -0.0004862800
   0.0000354500   -0.0000688100   -0.0003133700
  -0.0005673900   -0.0008628100    0.0000625800
   0.0001094800   -0.0002051000   -0.0003239100
  -0.0003424600    0.0005999000   -0.0010743100
  -0.0003338900    0.0005584800    0.0009381800
   0.0004699800   -0.0001363200   -0.0005835200
   0.0000798300   -0.0003924300    0.0009949400
  -0.0002403900    0.0001199500   -0.0000159700
   0.0000266100    0.0000537900    0.0004342400
   0.0000089100   -0.0000325700    0.0000903400
  -0.0005944600   -0.0000526100   -0.0008030500
   0.0000971300   -0.0001972400    0.0001368100
   0.0003437400    0.0002967400    0.0012284500
   0.0000417500   -0.0003520000    0.0009794300
   0.0001163400   -0.0001946800    0.0000743200
  -0.0010562800    0.0005639500    0.0016665100
   0.0007100700    0.0003148200    0.0013226900
   0.0001965900    0.0000478400    0.0000330100
  -0.0001437700    0.0000572900    0.0000195700
   0.0000146900   -0.0001414800    0.0000117000
   0.0001094500   -0.0000901000    0.0001219000
  -0.0002329200    0.0001909400    0.0000272900
   0.0001543600    0.0200104200    0.0072356600
   0.0006016200   -0.0015620700   -0.0003917800
  -0.0484524200    0.0276547000   -0.0199566700
   0.0152039400    0.0082856300   -0.0061072800
   0.0003963900    0.0001036400   -0.0004599300
  -0.0002870600   -0.0010310500   -0.0004318400
  -0.0002911000   -0.0007917500   -0.0002365300
   0.0008220400    0.0003642700   -0.0005671600
   0.0000280700    0.0006842900   -0.0004390300

37   
  0.0033749968256213  -0.0058456659773597   0.0073781830899067
   0.0003107100   -0.0005528800    0.0533548600
   0.0002835500   -0.0000399200    0.0011290000
  -0.0001579300    0.0012032600   -0.0001264100
   0.0002067000    0.0007157600   -0.0000317500
   0.0005684500   -0.0005188900    0.0010243500
  -0.0001215100    0.0002093800    0.0003160900
  -0.0001772400   -0.0001882300    0.0005978100
  -0.0000367700    0.0000686300    0.0003082700
  -0.0010412600   -0.0006374900    0.0003967000
   0.0003221200   -0.0005558900   -0.0009552400
  -0.0014623200    0.0005817700   -0.0002204700
  -0.0002781300   -0.0007280000   -0.0002234900
   0.0003954000   -0.0012521300   -0.0001458800
  -0.0008498800    0.0006090500   -0.0002982100
  -0.0001142000    0.0001983400   -0.0001543900
   0.0016253200    0.0005124600   -0.0001453400
  -0.0000160000    0.0000308900   -0.0000987300
   0.0004749700    0.0004214400   -0.0002992500
  -0.0002820000   -0.0554718400    0.0201799500
  -0.0010089000    0.0013394100    0.0003962900
   0.0176509900   -0.0100337900   -0.0074970300
   0.0145300100    0.0088660300    0.0061087400
  -0.0007400200    0.0000953000    0.0001362600
   0.0002795100    0.0006472400    0.0007165600
   0.0006918300    0.0005649200    0.0006024700
  -0.0008311000    0.0001062700    0.0001930900
   0.0003045700   -0.0004830000    0.0004315400
  -0.0000440300    0.0000252800   -0.0007255200
  -0.0000603500    0.0002329700   -0.0000760400
   0.0007621700   -0.0003879100   -0.0019425700
  -0.0004263900   -0.0001468200   -0.0013356000
  -0.0001049100   -0.0000974500    0.0000440700
   0.0001346100    0.0000609800   -0.0001193300
  -0.0000744300    0.0001802500   -0.0000851600
  -0.0001155500    0.0000291900   -0.0000760500
   0.0001291800   -0.0002384800   -0.0000387200
  -0.0445457100    0.0786044300   -0.1011102100
   0.0027344400   -0.0067000200   -0.0002060500
   0.0043363000   -0.0068739200   -0.0011047700
  -0.0025255500   -0.0041937200   -0.0006124700
   0.0038761200    0.0007676700   -0.0006954500
   0.0000987600   -0.0001776200   -0.0002559500
  -0.0008914400   -0.0026637400   -0.0001594000
   0.0000911100   -0.0001669800   -0.0002490600
   0.0037673500    0.0001167800   -0.0011488500
  -0.0000798400    0.0001290500    0.0004016700
   0.0002542600   -0.0001197300    0.0006522000
   0.0000153300   -0.0001549300    0.0007413100
  -0.0000677900    0.0001130400    0.0006896200
   0.0000462700    0.0000216800    0.0007037600
   0.0000286900   -0.0000572700    0.0000114400
  -0.0003159500   -0.0001027200    0.0006460200
   0.0000210200   -0.0000501600    0.0000103900
   0.0001439200    0.0001381900    0.0007468200
  -0.0003726900   -0.0055999200    0.0071137800
   0.0002424300   -0.0001518500   -0.0001201800
  -0.0016172000    0.0013620200    0.0031926400
   0.0029494600    0.0025661500    0.0051466800
   0.0003028600   -0.0001067800    0.0000517200
  -0.0000564500    0.0000445800   -0.0001808100
  -0.0002015400   -0.0000318900   -0.0001942400
   0.0001271700   -0.0001124100   -0.0000569900
  -0.0002174400    0.0000131900   -0.0000630800
  -0.0003610600    0.0006846100    0.0021000200
   0.0000619100   -0.0002509300   -0.0001234500
   0.0037436900   -0.0017469000    0.0080890600
  -0.0024476800   -0.0005731000    0.0051120800
   0.0000165700    0.0000525400   -0.0002104000
  -0.0000539900   -0.0002800700    0.0000680800
  -0.0000240600   -0.0001338800   -0.0000245700
   0.0001265400    0.0000957100   -0.0002348600
   0.0000669800    0.0001728100   -0.0000673700

37   
 -0.0033749968256213   0.0058456659773597  -0.0073781830899067
  -0.0001442900    0.0002362400   -0.0549145000
  -0.0002810500    0.0000271100   -0.0008698000
   0.0001510100   -0.0012097900    0.0003862500
  -0.0002103100   -0.0007241700    0.0002797100
  -0.0005646400    0.0005218400   -0.0007674900
   0.0001210400   -0.0002117600   -0.0000616900
   0.0001748400    0.0001928700   -0.0003490800
   0.0000452200   -0.0000786300   -0.0000514200
   0.0010396400    0.0006436000   -0.0001416500
  -0.0003180500    0.0005555800    0.0012091100
   0.0014554300   -0.0005872300    0.0004749800
   0.0002751900    0.0007286800    0.0004760800
  -0.0003942400    0.0012373400    0.0003984200
   0.0008471600   -0.0006050000    0.0005481200
   0.0001141300   -0.0001987300    0.0004031400
  -0.0016182800   -0.0005098900    0.0003985500
   0.0000197800   -0.0000349900    0.0003508800
  -0.0004800500   -0.0004254300    0.0005532000
   0.0000966100    0.0533031700   -0.0194666900
   0.0010180600   -0.0013399700   -0.0001351000
  -0.0176711400    0.0099209300    0.0079127900
  -0.0146119000   -0.0088331700   -0.0060114900
   0.0007439200   -0.0000909700    0.0001182700
  -0.0002952400   -0.0006406500   -0.0004673400
  -0.0006792800   -0.0005679100   -0.0003385900
   0.0008352400   -0.0001085000    0.0000604500
  -0.0003112600    0.0004990700   -0.0001720700
   0.0000443200   -0.0000238500    0.0009690600
   0.0000599900   -0.0002353700    0.0003362200
  -0.0007742300    0.0003982100    0.0022032800
   0.0004291900    0.0001456100    0.0015845100
   0.0001022000    0.0000994100    0.0002061700
  -0.0001419500   -0.0000611600    0.0003731600
   0.0000810700   -0.0001787800    0.0003344000
   0.0001178700   -0.0000228800    0.0003324200
  -0.0001284700    0.0002458300    0.0002884200
   0.0446945500   -0.0759897800    0.1021656700
  -0.0027020100    0.0066503900   -0.0000860200
  -0.0043461700    0.0069263200    0.0008692800
   0.0025219000    0.0041690700    0.0003667100
  -0.0038731400   -0.0007620000    0.0004303500
  -0.0000973000    0.0001697000   -0.0000026400
   0.0009057400    0.0026674600   -0.0001046600
  -0.0001099800    0.0001689600   -0.0000005600
  -0.0037734500   -0.0001243900    0.0008972200
   0.0000796100   -0.0001300100   -0.0006607700
  -0.0002489600    0.0001419600   -0.0009102500
   0.0000120100    0.0001543500   -0.0009976300
   0.0000612100   -0.0000998000   -0.0009409600
  -0.0000477900   -0.0000306800   -0.0009599300
  -0.0000304200    0.0000482900   -0.0002635100
   0.0003086100    0.0000983500   -0.0008978500
  -0.0000419800    0.0000473400   -0.0002676500
  -0.0001438300   -0.0001472500   -0.0010034100
   0.0003620300    0.0055097200   -0.0072148100
  -0.0002494100    0.0001613200   -0.0001155000
   0.0016350400   -0.0013620800   -0.0034758600
  -0.0029370600   -0.0025255900   -0.0053533800
  -0.0003084200    0.0001014700   -0.0002982100
   0.0000689900   -0.0000438000   -0.0000736600
   0.0001965000    0.0000349700   -0.0000621700
  -0.0001314900    0.0001157000   -0.0001919300
   0.0002195500   -0.0000230500   -0.0001883800
   0.0003747500   -0.0006930800   -0.0023400100
  -0.0000619500    0.0002726300   -0.0001114100
  -0.0038251300    0.0017699800   -0.0084594300
   0.0024768800    0.0005773600   -0.0053941000
  -0.0000298800   -0.0000672400   -0.0000413700
   0.0000687300    0.0002856100   -0.0003347900
   0.0000105200    0.0001449100   -0.0002277700
  -0.0001238900   -0.0001025200   -0.0000163500
  -0.0000618800   -0.0001812000   -0.0001849300
