# Thermal properties / unit cell (natom)

unit:
  temperature:   K
  free_energy:   kJ/mol
  entropy:       J/K/mol
  heat_capacity: J/K/mol

natom: 4    
cutoff_frequency: 0.00000
num_modes: 49152
num_integrated_modes: 49152

zero_point_energy:      17.6011023

thermal_properties:
- temperature:         0.0000000
  free_energy:        17.6011023
  entropy:             0.0000000
  heat_capacity:       0.0000000
  energy:             17.6011023

- temperature:        10.0000000
  free_energy:        17.6007658
  entropy:             0.1408144
  heat_capacity:       0.4787362
  energy:             17.6021740

- temperature:        20.0000000
  free_energy:        17.5938179
  entropy:             1.6205028
  heat_capacity:       5.2640792
  energy:             17.6262279

- temperature:        30.0000000
  free_energy:        17.5612145
  entropy:             5.1696379
  heat_capacity:      12.7500665
  energy:             17.7163036

- temperature:        40.0000000
  free_energy:        17.4870046
  entropy:             9.7654216
  heat_capacity:      19.2770994
  energy:             17.8776214

- temperature:        50.0000000
  free_energy:        17.3649838
  entropy:            14.6534442
  heat_capacity:      24.5631385
  energy:             18.0976560

- temperature:        60.0000000
  free_energy:        17.1939572
  entropy:            19.5414617
  heat_capacity:      29.1123665
  energy:             18.3664449

- temperature:        70.0000000
  free_energy:        16.9744307
  entropy:            24.3488498
  heat_capacity:      33.3386891
  energy:             18.6788502

- temperature:        80.0000000
  free_energy:        16.7072686
  entropy:            29.0701968
  heat_capacity:      37.4595157
  energy:             19.0328844

- temperature:        90.0000000
  free_energy:        16.3932708
  entropy:            33.7182244
  heat_capacity:      41.5386792
  energy:             19.4279110

- temperature:       100.0000000
  free_energy:        16.0331129
  entropy:            38.3033603
  heat_capacity:      45.5541860
  energy:             19.8634490

- temperature:       110.0000000
  free_energy:        15.6274008
  entropy:            42.8291106
  heat_capacity:      49.4522566
  energy:             20.3386030

- temperature:       120.0000000
  free_energy:        15.1767359
  entropy:            47.2932076
  heat_capacity:      53.1788177
  energy:             20.8519208

- temperature:       130.0000000
  free_energy:        14.6817607
  entropy:            51.6900709
  heat_capacity:      56.6931049
  energy:             21.4014699

- temperature:       140.0000000
  free_energy:        14.1431811
  entropy:            56.0129373
  heat_capacity:      59.9707239
  energy:             21.9849924

- temperature:       150.0000000
  free_energy:        13.5617705
  entropy:            60.2552723
  heat_capacity:      63.0017948
  energy:             22.6000613

- temperature:       160.0000000
  free_energy:        12.9383627
  entropy:            64.4115422
  heat_capacity:      65.7874816
  energy:             23.2442095

- temperature:       170.0000000
  free_energy:        12.2738407
  entropy:            68.4775344
  heat_capacity:      68.3365039
  energy:             23.9150216

- temperature:       180.0000000
  free_energy:        11.5691226
  entropy:            72.4504023
  heat_capacity:      70.6622449
  energy:             24.6101950

- temperature:       190.0000000
  free_energy:        10.8251485
  entropy:            76.3285607
  heat_capacity:      72.7805859
  energy:             25.3275750

- temperature:       200.0000000
  free_energy:        10.0428688
  entropy:            80.1115139
  heat_capacity:      74.7083898
  energy:             26.0651716

- temperature:       210.0000000
  free_energy:         9.2232343
  entropy:            83.7996648
  heat_capacity:      76.4625001
  energy:             26.8211639

- temperature:       220.0000000
  free_energy:         8.3671879
  entropy:            87.3941313
  heat_capacity:      78.0591188
  energy:             27.5938968

- temperature:       230.0000000
  free_energy:         7.4756585
  entropy:            90.8965813
  heat_capacity:      79.5134502
  energy:             28.3818721

- temperature:       240.0000000
  free_energy:         6.5495561
  entropy:            94.3090929
  heat_capacity:      80.8395244
  energy:             29.1837384

- temperature:       250.0000000
  free_energy:         5.5897685
  entropy:            97.6340376
  heat_capacity:      82.0501381
  energy:             29.9982779

- temperature:       260.0000000
  free_energy:         4.5971587
  entropy:           100.8739859
  heat_capacity:      83.1568684
  energy:             30.8243950

- temperature:       270.0000000
  free_energy:         3.5725631
  entropy:           104.0316322
  heat_capacity:      84.1701305
  energy:             31.6611038

- temperature:       280.0000000
  free_energy:         2.5167912
  entropy:           107.1097361
  heat_capacity:      85.0992582
  energy:             32.5075173

- temperature:       290.0000000
  free_energy:         1.4306243
  entropy:           110.1110764
  heat_capacity:      85.9525952
  energy:             33.3628365

- temperature:       300.0000000
  free_energy:         0.3148163
  entropy:           113.0384172
  heat_capacity:      86.7375888
  energy:             34.2263414

- temperature:       310.0000000
  free_energy:        -0.8299065
  entropy:           115.8944810
  heat_capacity:      87.4608812
  energy:             35.0973826

- temperature:       320.0000000
  free_energy:        -2.0028446
  entropy:           118.6819307
  heat_capacity:      88.1283953
  energy:             35.9753732

- temperature:       330.0000000
  free_energy:        -3.2033250
  entropy:           121.4033555
  heat_capacity:      88.7454141
  energy:             36.8597823

- temperature:       340.0000000
  free_energy:        -4.4307000
  entropy:           124.0612616
  heat_capacity:      89.3166521
  energy:             37.7501290

- temperature:       350.0000000
  free_energy:        -5.6843466
  entropy:           126.6580669
  heat_capacity:      89.8463203
  energy:             38.6459768

- temperature:       360.0000000
  free_energy:        -6.9636654
  entropy:           129.1960967
  heat_capacity:      90.3381837
  energy:             39.5469294

- temperature:       370.0000000
  free_energy:        -8.2680800
  entropy:           131.6775832
  heat_capacity:      90.7956126
  energy:             40.4526258

- temperature:       380.0000000
  free_energy:        -9.5970358
  entropy:           134.1046650
  heat_capacity:      91.2216277
  energy:             41.3627370

- temperature:       390.0000000
  free_energy:       -10.9499988
  entropy:           136.4793884
  heat_capacity:      91.6189401
  energy:             42.2769627

- temperature:       400.0000000
  free_energy:       -12.3264555
  entropy:           138.8037094
  heat_capacity:      91.9899868
  energy:             43.1950282

- temperature:       410.0000000
  free_energy:       -13.7259112
  entropy:           141.0794962
  heat_capacity:      92.3369609
  energy:             44.1166822

- temperature:       420.0000000
  free_energy:       -15.1478896
  entropy:           143.3085320
  heat_capacity:      92.6618397
  energy:             45.0416938

- temperature:       430.0000000
  free_energy:       -16.5919317
  entropy:           145.4925187
  heat_capacity:      92.9664083
  energy:             45.9698513

- temperature:       440.0000000
  free_energy:       -18.0575953
  entropy:           147.6330794
  heat_capacity:      93.2522806
  energy:             46.9009597

- temperature:       450.0000000
  free_energy:       -19.5444537
  entropy:           149.7317627
  heat_capacity:      93.5209180
  energy:             47.8348395

- temperature:       460.0000000
  free_energy:       -21.0520958
  entropy:           151.7900454
  heat_capacity:      93.7736457
  energy:             48.7713250

- temperature:       470.0000000
  free_energy:       -22.5801247
  entropy:           153.8093363
  heat_capacity:      94.0116676
  energy:             49.7102634

- temperature:       480.0000000
  free_energy:       -24.1281571
  entropy:           155.7909794
  heat_capacity:      94.2360782
  energy:             50.6515130

- temperature:       490.0000000
  free_energy:       -25.6958231
  entropy:           157.7362571
  heat_capacity:      94.4478748
  energy:             51.5949429

- temperature:       500.0000000
  free_energy:       -27.2827651
  entropy:           159.6463932
  heat_capacity:      94.6479668
  energy:             52.5404315

- temperature:       510.0000000
  free_energy:       -28.8886377
  entropy:           161.5225562
  heat_capacity:      94.8371848
  energy:             53.4878660

- temperature:       520.0000000
  free_energy:       -30.5131067
  entropy:           163.3658619
  heat_capacity:      95.0162887
  energy:             54.4371415

- temperature:       530.0000000
  free_energy:       -32.1558490
  entropy:           165.1773761
  heat_capacity:      95.1859742
  energy:             55.3881604

- temperature:       540.0000000
  free_energy:       -33.8165517
  entropy:           166.9581174
  heat_capacity:      95.3468795
  energy:             56.3408317

- temperature:       550.0000000
  free_energy:       -35.4949120
  entropy:           168.7090593
  heat_capacity:      95.4995905
  energy:             57.2950707

- temperature:       560.0000000
  free_energy:       -37.1906366
  entropy:           170.4311333
  heat_capacity:      95.6446458
  energy:             58.2507980

- temperature:       570.0000000
  free_energy:       -38.9034414
  entropy:           172.1252300
  heat_capacity:      95.7825412
  energy:             59.2079397

- temperature:       580.0000000
  free_energy:       -40.6330508
  entropy:           173.7922023
  heat_capacity:      95.9137337
  energy:             60.1664265

- temperature:       590.0000000
  free_energy:       -42.3791977
  entropy:           175.4328664
  heat_capacity:      96.0386448
  energy:             61.1261935

- temperature:       600.0000000
  free_energy:       -44.1416231
  entropy:           177.0480047
  heat_capacity:      96.1576641
  energy:             62.0871798

- temperature:       610.0000000
  free_energy:       -45.9200753
  entropy:           178.6383665
  heat_capacity:      96.2711516
  energy:             63.0493283

- temperature:       620.0000000
  free_energy:       -47.7143102
  entropy:           180.2046704
  heat_capacity:      96.3794407
  energy:             64.0125855

- temperature:       630.0000000
  free_energy:       -49.5240908
  entropy:           181.7476057
  heat_capacity:      96.4828404
  energy:             64.9769008

- temperature:       640.0000000
  free_energy:       -51.3491866
  entropy:           183.2678337
  heat_capacity:      96.5816373
  energy:             65.9422269

- temperature:       650.0000000
  free_energy:       -53.1893739
  entropy:           184.7659892
  heat_capacity:      96.6760976
  energy:             66.9085191

- temperature:       660.0000000
  free_energy:       -55.0444349
  entropy:           186.2426820
  heat_capacity:      96.7664688
  energy:             67.8757353

- temperature:       670.0000000
  free_energy:       -56.9141579
  entropy:           187.6984978
  heat_capacity:      96.8529810
  energy:             68.8438356

- temperature:       680.0000000
  free_energy:       -58.7983371
  entropy:           189.1339998
  heat_capacity:      96.9358487
  energy:             69.8127827

- temperature:       690.0000000
  free_energy:       -60.6967720
  entropy:           190.5497292
  heat_capacity:      97.0152718
  energy:             70.7825411

- temperature:       700.0000000
  free_energy:       -62.6092675
  entropy:           191.9462069
  heat_capacity:      97.0914368
  energy:             71.7530773

- temperature:       710.0000000
  free_energy:       -64.5356336
  entropy:           193.3239341
  heat_capacity:      97.1645178
  energy:             72.7243596

- temperature:       720.0000000
  free_energy:       -66.4756853
  entropy:           194.6833934
  heat_capacity:      97.2346776
  energy:             73.6963579

- temperature:       730.0000000
  free_energy:       -68.4292422
  entropy:           196.0250494
  heat_capacity:      97.3020686
  energy:             74.6690439

- temperature:       740.0000000
  free_energy:       -70.3961285
  entropy:           197.3493500
  heat_capacity:      97.3668333
  energy:             75.6423905

- temperature:       750.0000000
  free_energy:       -72.3761728
  entropy:           198.6567267
  heat_capacity:      97.4291054
  energy:             76.6163723

- temperature:       760.0000000
  free_energy:       -74.3692080
  entropy:           199.9475957
  heat_capacity:      97.4890100
  energy:             77.5909648

- temperature:       770.0000000
  free_energy:       -76.3750710
  entropy:           201.2223584
  heat_capacity:      97.5466649
  energy:             78.5661450

- temperature:       780.0000000
  free_energy:       -78.3936027
  entropy:           202.4814021
  heat_capacity:      97.6021803
  energy:             79.5418909

- temperature:       790.0000000
  free_energy:       -80.4246479
  entropy:           203.7251008
  heat_capacity:      97.6556601
  energy:             80.5181818

- temperature:       800.0000000
  free_energy:       -82.4680548
  entropy:           204.9538156
  heat_capacity:      97.7072020
  energy:             81.4949977

- temperature:       810.0000000
  free_energy:       -84.5236754
  entropy:           206.1678952
  heat_capacity:      97.7568976
  energy:             82.4723197

- temperature:       820.0000000
  free_energy:       -86.5913651
  entropy:           207.3676766
  heat_capacity:      97.8048337
  energy:             83.4501298

- temperature:       830.0000000
  free_energy:       -88.6709824
  entropy:           208.5534857
  heat_capacity:      97.8510918
  energy:             84.4284108

- temperature:       840.0000000
  free_energy:       -90.7623892
  entropy:           209.7256375
  heat_capacity:      97.8957487
  energy:             85.4071463

- temperature:       850.0000000
  free_energy:       -92.8654506
  entropy:           210.8844368
  heat_capacity:      97.9388771
  energy:             86.3863206

- temperature:       860.0000000
  free_energy:       -94.9800345
  entropy:           212.0301784
  heat_capacity:      97.9805454
  energy:             87.3659189

- temperature:       870.0000000
  free_energy:       -97.1060116
  entropy:           213.1631477
  heat_capacity:      98.0208186
  energy:             88.3459269

- temperature:       880.0000000
  free_energy:       -99.2432558
  entropy:           214.2836212
  heat_capacity:      98.0597577
  energy:             89.3263309

- temperature:       890.0000000
  free_energy:      -101.3916433
  entropy:           215.3918664
  heat_capacity:      98.0974208
  energy:             90.3071178

- temperature:       900.0000000
  free_energy:      -103.5510532
  entropy:           216.4881427
  heat_capacity:      98.1338626
  energy:             91.2882752

- temperature:       910.0000000
  free_energy:      -105.7213671
  entropy:           217.5727013
  heat_capacity:      98.1691352
  energy:             92.2697911

- temperature:       920.0000000
  free_energy:      -107.9024690
  entropy:           218.6457860
  heat_capacity:      98.2032878
  energy:             93.2516542

- temperature:       930.0000000
  free_energy:      -110.0942453
  entropy:           219.7076330
  heat_capacity:      98.2363670
  energy:             94.2338533

- temperature:       940.0000000
  free_energy:      -112.2965849
  entropy:           220.7584713
  heat_capacity:      98.2684171
  energy:             95.2163781

- temperature:       950.0000000
  free_energy:      -114.5093788
  entropy:           221.7985233
  heat_capacity:      98.2994801
  energy:             96.1992184

- temperature:       960.0000000
  free_energy:      -116.7325202
  entropy:           222.8280049
  heat_capacity:      98.3295961
  energy:             97.1823645

- temperature:       970.0000000
  free_energy:      -118.9659044
  entropy:           223.8471254
  heat_capacity:      98.3588028
  energy:             98.1658073

- temperature:       980.0000000
  free_energy:      -121.2094288
  entropy:           224.8560883
  heat_capacity:      98.3871364
  energy:             99.1495377

- temperature:       990.0000000
  free_energy:      -123.4629929
  entropy:           225.8550910
  heat_capacity:      98.4146312
  energy:            100.1335472

- temperature:      1000.0000000
  free_energy:      -125.7264981
  entropy:           226.8443257
  heat_capacity:      98.4413197
  energy:            101.1178276
