72   
4    

1    
  0.0033749968256213  -0.0058456659773597   0.0073781830899067
  -0.0137813500    0.0243567400   -0.0307383200
   0.0013114100   -0.0024618100   -0.0011371300
  -0.0001366800   -0.0058042400   -0.0031332800
  -0.0006756300   -0.0016405500   -0.0013941200
  -0.0004120900    0.0028948900   -0.0028656000
   0.0004361100   -0.0007475800   -0.0010922000
  -0.0021162400   -0.0012092900   -0.0003928400
   0.0004388700   -0.0007473500   -0.0010947900
   0.0043009500    0.0043558300   -0.0038657200
   0.0000440500   -0.0000659400    0.0018040700
   0.0004042400   -0.0001956200   -0.0001776700
   0.0001478200    0.0007336100    0.0006783300
  -0.0001818900    0.0005824300    0.0001657800
   0.0005271400   -0.0002818100    0.0003293300
   0.0000439400   -0.0000636600    0.0000967500
  -0.0004415000   -0.0001055900   -0.0002638400
   0.0000388800   -0.0000631800    0.0000956200
  -0.0006154100   -0.0004046500    0.0007560900
   0.0000920400   -0.0046868300    0.0021132800
  -0.0000903000   -0.0008534100    0.0000723200
  -0.0057906000    0.0032249100    0.0002311800
   0.0049904200    0.0026583700    0.0011666000
   0.0005642000    0.0000794800    0.0000143900
  -0.0003533700    0.0001252000   -0.0001375700
   0.0004323000   -0.0006572700    0.0000771800
   0.0003423900    0.0002913200    0.0000625600
  -0.0006068700    0.0004643800   -0.0000636200
   0.0000941300    0.0021400800   -0.0033141600
   0.0003485600   -0.0006032200    0.0000722700
   0.0001140300   -0.0001857200    0.0056371200
  -0.0009155800   -0.0007615100    0.0011655100
   0.0002322000    0.0002752500   -0.0002933400
  -0.0003584200   -0.0002574700    0.0001635700
  -0.0000001500   -0.0004025200   -0.0003244700
   0.0003436600   -0.0002174000    0.0004628800
  -0.0002745000    0.0006605500   -0.0000663900
   0.0019900800   -0.0034184200    0.0144070900
  -0.0006058700    0.0011563900    0.0002209600
   0.0005216500   -0.0001126400    0.0015310600
  -0.0003647500   -0.0005455100    0.0008659400
  -0.0009924600   -0.0003825000    0.0008843700
  -0.0000454500    0.0001038800    0.0005699300
   0.0006786000    0.0009273100    0.0001958400
  -0.0001480200    0.0002690100    0.0006084900
   0.0005308800   -0.0005602700    0.0015446800
   0.0004159800   -0.0006943200   -0.0012480300
  -0.0005469700    0.0002486300    0.0006690600
  -0.0000438200    0.0006491300   -0.0010708800
   0.0002419700    0.0000515900   -0.0000471900
  -0.0000689600   -0.0000931200   -0.0003542600
  -0.0000251700    0.0000687300    0.0000378000
   0.0006152500    0.0000806600    0.0008411000
  -0.0001575200    0.0002871700   -0.0000418200
  -0.0004601400   -0.0004206900   -0.0012284000
  -0.0000336900    0.0005100300   -0.0010366800
  -0.0001158300    0.0002043000    0.0000671100
   0.0010308100   -0.0005631800   -0.0015644600
  -0.0007744000   -0.0003537900   -0.0012972800
  -0.0002548400   -0.0000323200    0.0001048600
   0.0001483500   -0.0001101500    0.0001024200
  -0.0000404200    0.0001346700    0.0001119200
  -0.0001185300    0.0000771000    0.0000220900
   0.0002641700   -0.0001748900    0.0000944400
   0.0017057300   -0.0070236900    0.0028559000
  -0.0008566300    0.0019176600    0.0005615100
   0.0111426400   -0.0084558800    0.0082334200
  -0.0014520500   -0.0048532900    0.0056296100
  -0.0004408600   -0.0002306200    0.0006393000
   0.0004067900    0.0011230500    0.0005611100
   0.0003602500    0.0010067500    0.0004391300
  -0.0010537000   -0.0002703900    0.0006849400
   0.0000501500   -0.0009467900    0.0005951400

1    
 -0.0033749968256213   0.0058456659773597  -0.0073781830899067
   0.0146866900   -0.0248516400    0.0298324700
  -0.0013168600    0.0024688900    0.0005159100
   0.0001232300    0.0058329300    0.0025165700
   0.0006842300    0.0016507100    0.0007769400
   0.0004130500   -0.0028814300    0.0022507400
  -0.0004386400    0.0007688300    0.0004826800
   0.0021287800    0.0012270300   -0.0002255400
  -0.0004378800    0.0007669900    0.0004730200
  -0.0043102300   -0.0043487300    0.0032505200
  -0.0000469000    0.0000850800   -0.0024233600
  -0.0004042000    0.0002085300   -0.0004370900
  -0.0001505400   -0.0007149500   -0.0012861600
   0.0001848400   -0.0005631000   -0.0007847800
  -0.0005257700    0.0002980200   -0.0009397700
  -0.0000413300    0.0000815000   -0.0007111500
   0.0004411400    0.0001207100   -0.0003609500
  -0.0000409700    0.0000842900   -0.0007078700
   0.0006156500    0.0004206700   -0.0013680200
  -0.0000958400    0.0046763400   -0.0026919300
   0.0000863000    0.0008382100   -0.0006778600
   0.0057790500   -0.0032364000   -0.0008395300
  -0.0049910300   -0.0026686000   -0.0017686600
  -0.0005671600   -0.0000942900   -0.0006218900
   0.0003605000   -0.0001435100   -0.0004692000
  -0.0004370500    0.0006399500   -0.0006852700
  -0.0003450200   -0.0003038900   -0.0006761600
   0.0006107900   -0.0004832100   -0.0005467200
  -0.0000924000   -0.0021609500    0.0027042400
  -0.0003497900    0.0005832000   -0.0006808300
  -0.0001486900    0.0001843400   -0.0062650000
   0.0009362100    0.0007425900   -0.0017736300
  -0.0002325100   -0.0002813900   -0.0003184400
   0.0003545200    0.0002428800   -0.0007757000
   0.0000046000    0.0003878600   -0.0002861500
  -0.0003443800    0.0001989000   -0.0010789400
   0.0002749700   -0.0006715800   -0.0005488000
  -0.0019969100    0.0034975100   -0.0130290000
   0.0006263800   -0.0011115200    0.0003931200
  -0.0005158500    0.0001320200   -0.0009367400
   0.0003743200    0.0005784200   -0.0002381500
   0.0009787600    0.0003948000   -0.0002925400
   0.0000469800   -0.0000538000    0.0000547700
  -0.0007017900   -0.0009017100    0.0004172800
   0.0001294000   -0.0002269300    0.0000170700
  -0.0005197100    0.0005690800   -0.0009563800
  -0.0004081400    0.0007178700    0.0018588700
   0.0005501500   -0.0002186100   -0.0000605000
   0.0000351400   -0.0006042500    0.0016758600
  -0.0002275200   -0.0000148200    0.0006352400
   0.0000608500    0.0001122000    0.0009678900
   0.0000292800   -0.0000259100    0.0005823000
  -0.0006268500   -0.0000574200   -0.0002049300
   0.0001485800   -0.0002387900    0.0006608500
   0.0004558200    0.0004275400    0.0018238800
   0.0000501800   -0.0005348300    0.0016516000
   0.0001192200   -0.0002221400    0.0005381700
  -0.0010358800    0.0005264600    0.0021703200
   0.0007682500    0.0003518300    0.0019086600
   0.0002464900   -0.0000027800    0.0004814000
  -0.0001257500    0.0000694200    0.0005053400
   0.0000163900   -0.0001869300    0.0004766400
   0.0001347900   -0.0001158400    0.0005881900
  -0.0002753700    0.0001660400    0.0004866400
  -0.0017269300    0.0069791500   -0.0022917900
   0.0008806400   -0.0019437400    0.0000396000
  -0.0119751200    0.0088636100   -0.0078840100
   0.0014573600    0.0047760000   -0.0049939500
   0.0004415800    0.0002217400   -0.0000334200
  -0.0004291400   -0.0011584700    0.0000502000
  -0.0003689200   -0.0010130600    0.0001419800
   0.0010547700    0.0002053400   -0.0000618700
  -0.0000388400    0.0009377200    0.0000037200

37   
  0.0033749968256213  -0.0058456659773597   0.0073781830899067
   0.0020155500   -0.0034951700    0.0130232800
   0.0004469700   -0.0000441700    0.0010259400
  -0.0001317500    0.0012910600   -0.0004993200
   0.0002142800    0.0008046400   -0.0002837400
   0.0006487800   -0.0006652000    0.0008117700
  -0.0001393100    0.0002509400   -0.0000064000
  -0.0002840100   -0.0002221000    0.0004728500
  -0.0000413800    0.0000819100   -0.0000438200
  -0.0011028300   -0.0007474500    0.0000470200
   0.0004099200   -0.0007056200   -0.0018684300
  -0.0015321800    0.0008091300   -0.0008486400
  -0.0002815800   -0.0006571800   -0.0007696100
   0.0003614000   -0.0013187200   -0.0007596500
  -0.0009313000    0.0005289500   -0.0008640100
  -0.0001511000    0.0002683300   -0.0006540500
   0.0017394400    0.0007165900   -0.0007985700
  -0.0000227500    0.0000549500   -0.0005812400
   0.0004206800    0.0003543400   -0.0008195500
   0.0017063900   -0.0146134400    0.0080322900
  -0.0011708500    0.0017428100   -0.0000503500
   0.0053422200   -0.0051129800    0.0021343900
   0.0047437100   -0.0012619500    0.0049965300
  -0.0008629900    0.0000028600   -0.0003526600
   0.0004189600    0.0006409700    0.0003281300
   0.0006794400    0.0008139700    0.0001294500
  -0.0010504700    0.0001025800   -0.0002267600
   0.0004661200   -0.0007116900   -0.0000124700
  -0.0000332100   -0.0000059000   -0.0012508400
  -0.0000692500    0.0002290100   -0.0005454900
   0.0005844800   -0.0003073600   -0.0025892700
  -0.0003196500   -0.0001161900   -0.0019235300
  -0.0001269300   -0.0000994700   -0.0003887700
   0.0001416400    0.0000385500   -0.0006203700
  -0.0000675500    0.0001703700   -0.0005387100
  -0.0001191400    0.0000243100   -0.0005411400
   0.0001494400   -0.0002499400   -0.0005066400
  -0.0212453000    0.0373943000   -0.0458561200
   0.0018060500   -0.0044679100    0.0000187400
   0.0028336100   -0.0045854000   -0.0005834700
  -0.0017061100   -0.0027438300   -0.0002093500
   0.0025775100    0.0006479600   -0.0003496800
   0.0001480000   -0.0002250700    0.0001166100
  -0.0006646900   -0.0017480600    0.0000848800
   0.0001352800   -0.0002260500    0.0001208700
   0.0025083200    0.0002206500   -0.0006425300
  -0.0001323700    0.0002446200    0.0012441900
   0.0002077700   -0.0001273300    0.0010829500
   0.0000054200   -0.0001954000    0.0011093400
  -0.0000637100    0.0000617300    0.0010853800
   0.0000257000    0.0000802000    0.0010852900
   0.0000445500   -0.0000429500    0.0005091600
  -0.0002745800   -0.0000756400    0.0010911300
   0.0000355800   -0.0000386600    0.0005061900
   0.0001788200    0.0001760300    0.0011002500
  -0.0003205100   -0.0036728100    0.0050550100
   0.0002848900   -0.0003331600    0.0002727300
  -0.0011136500    0.0009899300    0.0023453400
   0.0018985200    0.0018325400    0.0037003000
   0.0004172400   -0.0001389800    0.0005095000
  -0.0000829800    0.0000591800    0.0001733800
  -0.0002031100   -0.0001550400    0.0002176400
   0.0002116200   -0.0000959900    0.0003385700
  -0.0003167700    0.0000329200    0.0003325900
  -0.0003197600    0.0005766900    0.0016605200
   0.0001601300   -0.0004090900    0.0002735500
   0.0025223200   -0.0011067600    0.0056850600
  -0.0017543000   -0.0003080000    0.0036806000
   0.0000089800    0.0000973500    0.0001421500
  -0.0001035900   -0.0004075300    0.0005500800
  -0.0000617200   -0.0002156100    0.0003361000
   0.0002066700    0.0000519400    0.0002186800
   0.0000949600    0.0002614700    0.0003367900

37   
 -0.0033749968256213   0.0058456659773597  -0.0073781830899067
  -0.0019847800    0.0034253400   -0.0144130400
  -0.0004463100    0.0000652200   -0.0016370400
   0.0001348100   -0.0012760200   -0.0001126300
  -0.0002196100   -0.0007891200   -0.0003245600
  -0.0006474300    0.0006762300   -0.0014230800
   0.0001374800   -0.0002334000   -0.0006059200
   0.0002850900    0.0002492900   -0.0010942300
   0.0000461300   -0.0000660100   -0.0005608700
   0.0011059700    0.0007633600   -0.0006636400
  -0.0004066200    0.0007136000    0.0012487900
   0.0015273400   -0.0007901500    0.0002358600
   0.0002760700    0.0006799700    0.0001588200
  -0.0003578600    0.0013307700    0.0001442900
   0.0009301200   -0.0005189800    0.0002522600
   0.0001494400   -0.0002493500    0.0000479900
  -0.0017289100   -0.0006944100    0.0001888300
   0.0000250200   -0.0000332300   -0.0000328000
  -0.0004222400   -0.0003466000    0.0002117100
  -0.0017434000    0.0136599100   -0.0084151600
   0.0011786800   -0.0017527800   -0.0005655000
  -0.0054315100    0.0050926700   -0.0026951800
  -0.0046958700    0.0012601800   -0.0056327400
   0.0008546100   -0.0000153200   -0.0002624300
  -0.0004237900   -0.0006578900   -0.0009393300
  -0.0006746700   -0.0008323100   -0.0007334000
   0.0010493800   -0.0001205300   -0.0003836000
  -0.0004644700    0.0007001000   -0.0005999600
   0.0000338800   -0.0000126500    0.0006327300
   0.0000673900   -0.0002439900   -0.0000722400
  -0.0005959200    0.0002913200    0.0019855000
   0.0003265900    0.0000929700    0.0013054000
   0.0001250600    0.0000881800   -0.0002278800
  -0.0001440400   -0.0000527600    0.0000172700
   0.0000729800   -0.0001834900   -0.0000783600
   0.0001192500   -0.0000423600   -0.0000659300
  -0.0001487900    0.0002378900   -0.0001089800
   0.0213237900   -0.0363559800    0.0470293900
  -0.0017716300    0.0044635100    0.0005888500
  -0.0028478300    0.0046391800    0.0011919600
   0.0017134900    0.0027515800    0.0008416300
  -0.0025811600   -0.0006289100    0.0009392200
  -0.0001392700    0.0002714400    0.0005038500
   0.0006534900    0.0017766600    0.0005357400
  -0.0001504300    0.0002701100    0.0005041900
  -0.0025075300   -0.0002163500    0.0012445500
   0.0001339800   -0.0002233700   -0.0006346200
  -0.0002126800    0.0001541000   -0.0004596000
  -0.0000211700    0.0002271500   -0.0004989000
   0.0000866400   -0.0000268500   -0.0004877400
  -0.0000337900   -0.0000569400   -0.0004862100
  -0.0000347800    0.0000903300    0.0001143200
   0.0002667000    0.0000972300   -0.0004504100
  -0.0000454300    0.0000904900    0.0001123100
  -0.0001740800   -0.0001650700   -0.0005027900
   0.0003196900    0.0036112100   -0.0043683400
  -0.0002852400    0.0003016200    0.0003310200
   0.0011127500   -0.0010264300   -0.0017626600
  -0.0018896400   -0.0018269500   -0.0030635700
  -0.0004217500    0.0001259300    0.0000876600
   0.0001015000   -0.0001046000    0.0004423200
   0.0001839400    0.0001037000    0.0003787500
  -0.0002077000    0.0000561300    0.0002859100
   0.0003120600   -0.0000379800    0.0002549900
   0.0003177100   -0.0006020700   -0.0010594200
  -0.0001429200    0.0003805900    0.0003283800
  -0.0025888500    0.0011012000   -0.0051236700
   0.0017888500    0.0002638000   -0.0030777400
  -0.0000048900   -0.0001098000    0.0004733200
   0.0000869200    0.0003806300    0.0000724500
   0.0000548700    0.0001983000    0.0002519400
  -0.0002073900   -0.0001117400    0.0004127900
  -0.0000973300   -0.0002775200    0.0002691900
