mesh: [    16,    16,    16 ]
nqpoint: 576    
reciprocal_lattice:
- [   0.24983820,  -0.14424415,   0.00000000 ] # a*
- [   0.24983820,   0.14424415,   0.00000000 ] # b*
- [   0.00000000,   0.00000000,   0.15237774 ] # c*
natom:   4      
lattice:
- [     2.001295222135524,    -3.466345005683571,     0.000000000000000 ] # a
- [     2.001295222135524,     3.466345005683571,     0.000000000000000 ] # b
- [     0.000000000000000,     0.000000000000000,     6.562638424031745 ] # c
points:
- symbol: Zn # 1
  coordinates: [  0.333333333333336,  0.666666666666664,  0.999819116547299 ]
  mass: 65.380000
- symbol: Zn # 2
  coordinates: [  0.666666666666664,  0.333333333333336,  0.499819116547299 ]
  mass: 65.380000
- symbol: S # 3
  coordinates: [  0.333333333333336,  0.666666666666664,  0.375180883452701 ]
  mass: 32.065000
- symbol: S # 4
  coordinates: [  0.666666666666664,  0.333333333333336,  0.875180883452701 ]
  mass: 32.065000

phonon:
- q-position: [    0.0312500,    0.0312500,    0.0312500 ]
  distance_from_gamma:  0.016324812
  weight: 4    
  band:
  - # 1
    frequency:     0.3705227146
  - # 2
    frequency:     0.4152748652
  - # 3
    frequency:     0.7730428203
  - # 4
    frequency:     2.2010609621
  - # 5
    frequency:     2.2422251826
  - # 6
    frequency:     4.9424815893
  - # 7
    frequency:     6.0956933360
  - # 8
    frequency:     6.3698032058
  - # 9
    frequency:     6.4055276157
  - # 10
    frequency:     6.4549412094
  - # 11
    frequency:     6.4878664156
  - # 12
    frequency:     8.1713134763

- q-position: [    0.0937500,    0.0312500,    0.0312500 ]
  distance_from_gamma:  0.032851918
  weight: 8    
  band:
  - # 1
    frequency:     0.8217583354
  - # 2
    frequency:     0.8394042348
  - # 3
    frequency:     1.4504402878
  - # 4
    frequency:     2.2617630816
  - # 5
    frequency:     2.4258713111
  - # 6
    frequency:     4.8508652830
  - # 7
    frequency:     6.1151899292
  - # 8
    frequency:     6.4139166979
  - # 9
    frequency:     6.4976898679
  - # 10
    frequency:     6.6093929932
  - # 11
    frequency:     6.8368921035
  - # 12
    frequency:     8.1368180442

- q-position: [    0.1562500,    0.0312500,    0.0312500 ]
  distance_from_gamma:  0.050420203
  weight: 8    
  band:
  - # 1
    frequency:     1.2167597906
  - # 2
    frequency:     1.2988489769
  - # 3
    frequency:     2.1321921726
  - # 4
    frequency:     2.3679941282
  - # 5
    frequency:     2.7145170380
  - # 6
    frequency:     4.7274067572
  - # 7
    frequency:     6.1650439467
  - # 8
    frequency:     6.4750126935
  - # 9
    frequency:     6.6225459629
  - # 10
    frequency:     6.8486037081
  - # 11
    frequency:     7.3227367922
  - # 12
    frequency:     8.0789908642

- q-position: [    0.2187500,    0.0312500,    0.0312500 ]
  distance_from_gamma:  0.068230084
  weight: 8    
  band:
  - # 1
    frequency:     1.5631199236
  - # 2
    frequency:     1.7141686020
  - # 3
    frequency:     2.4311065074
  - # 4
    frequency:     2.7340217687
  - # 5
    frequency:     3.0994415848
  - # 6
    frequency:     4.6448374988
  - # 7
    frequency:     6.2454135869
  - # 8
    frequency:     6.5242769305
  - # 9
    frequency:     6.7503657022
  - # 10
    frequency:     7.1160832214
  - # 11
    frequency:     7.8020879361
  - # 12
    frequency:     8.0132780397

- q-position: [    0.2812500,    0.0312500,    0.0312500 ]
  distance_from_gamma:  0.086131824
  weight: 8    
  band:
  - # 1
    frequency:     1.8422095693
  - # 2
    frequency:     2.0635211527
  - # 3
    frequency:     2.5236942387
  - # 4
    frequency:     2.9627619299
  - # 5
    frequency:     3.6388097444
  - # 6
    frequency:     4.6814269030
  - # 7
    frequency:     6.3552929156
  - # 8
    frequency:     6.5361338792
  - # 9
    frequency:     6.8697304691
  - # 10
    frequency:     7.3498959831
  - # 11
    frequency:     7.9208811123
  - # 12
    frequency:     8.2127617622

- q-position: [    0.3437500,    0.0312500,    0.0312500 ]
  distance_from_gamma:  0.104078034
  weight: 8    
  band:
  - # 1
    frequency:     2.0357709435
  - # 2
    frequency:     2.3346835683
  - # 3
    frequency:     2.5932325594
  - # 4
    frequency:     2.9766792638
  - # 5
    frequency:     4.1673908614
  - # 6
    frequency:     4.8210403878
  - # 7
    frequency:     6.4839448791
  - # 8
    frequency:     6.5147935202
  - # 9
    frequency:     6.9685209414
  - # 10
    frequency:     7.4766842029
  - # 11
    frequency:     7.9199277075
  - # 12
    frequency:     8.4437602103

- q-position: [    0.4062500,    0.0312500,    0.0312500 ]
  distance_from_gamma:  0.122049098
  weight: 8    
  band:
  - # 1
    frequency:     2.1370357931
  - # 2
    frequency:     2.5266534655
  - # 3
    frequency:     2.6496211135
  - # 4
    frequency:     2.9073894926
  - # 5
    frequency:     4.5869724914
  - # 6
    frequency:     4.9404905810
  - # 7
    frequency:     6.4708674459
  - # 8
    frequency:     6.6199863058
  - # 9
    frequency:     7.0360936893
  - # 10
    frequency:     7.4650705460
  - # 11
    frequency:     8.0175593909
  - # 12
    frequency:     8.5281687185

- q-position: [    0.4687500,    0.0312500,    0.0312500 ]
  distance_from_gamma:  0.140035449
  weight: 8    
  band:
  - # 1
    frequency:     2.1696000311
  - # 2
    frequency:     2.6321563070
  - # 3
    frequency:     2.6808899033
  - # 4
    frequency:     2.8418594154
  - # 5
    frequency:     4.8499188454
  - # 6
    frequency:     4.9355591380
  - # 7
    frequency:     6.4476027659
  - # 8
    frequency:     6.6976991770
  - # 9
    frequency:     7.0660254488
  - # 10
    frequency:     7.4243807953
  - # 11
    frequency:     8.1064997001
  - # 12
    frequency:     8.5271926506

- q-position: [   -0.4687500,    0.0312500,    0.0312500 ]
  distance_from_gamma:  0.131040756
  weight: 8    
  band:
  - # 1
    frequency:     2.1596795300
  - # 2
    frequency:     2.5926641617
  - # 3
    frequency:     2.6698399499
  - # 4
    frequency:     2.8688000963
  - # 5
    frequency:     4.7412137931
  - # 6
    frequency:     4.9564959481
  - # 7
    frequency:     6.4559004810
  - # 8
    frequency:     6.6695938493
  - # 9
    frequency:     7.0559929877
  - # 10
    frequency:     7.4407697899
  - # 11
    frequency:     8.0722259373
  - # 12
    frequency:     8.5317649207

- q-position: [   -0.4062500,    0.0312500,    0.0312500 ]
  distance_from_gamma:  0.113061200
  weight: 8    
  band:
  - # 1
    frequency:     2.0971549447
  - # 2
    frequency:     2.4403584886
  - # 3
    frequency:     2.6232352610
  - # 4
    frequency:     2.9463761467
  - # 5
    frequency:     4.3940130234
  - # 6
    frequency:     4.8915298497
  - # 7
    frequency:     6.4891264153
  - # 8
    frequency:     6.5581692927
  - # 9
    frequency:     7.0067176911
  - # 10
    frequency:     7.4830032227
  - # 11
    frequency:     7.9606675124
  - # 12
    frequency:     8.5021801451

- q-position: [   -0.3437500,    0.0312500,    0.0312500 ]
  distance_from_gamma:  0.095100942
  weight: 8    
  band:
  - # 1
    frequency:     1.9506887187
  - # 2
    frequency:     2.2091681512
  - # 3
    frequency:     2.5603863010
  - # 4
    frequency:     2.9870322404
  - # 5
    frequency:     3.9129940338
  - # 6
    frequency:     4.7449833225
  - # 7
    frequency:     6.4192238056
  - # 8
    frequency:     6.5275322940
  - # 9
    frequency:     6.9224473018
  - # 10
    frequency:     7.4320131695
  - # 11
    frequency:     7.9079169873
  - # 12
    frequency:     8.3474754484

- q-position: [   -0.2812500,    0.0312500,    0.0312500 ]
  distance_from_gamma:  0.077173460
  weight: 8    
  band:
  - # 1
    frequency:     1.7122226650
  - # 2
    frequency:     1.8981276662
  - # 3
    frequency:     2.4814153245
  - # 4
    frequency:     2.8859142556
  - # 5
    frequency:     3.3585760138
  - # 6
    frequency:     4.6457329993
  - # 7
    frequency:     6.2968989934
  - # 8
    frequency:     6.5354743645
  - # 9
    frequency:     6.8118426999
  - # 10
    frequency:     7.2411661190
  - # 11
    frequency:     7.9338547901
  - # 12
    frequency:     8.0546283846

- q-position: [   -0.2187500,    0.0312500,    0.0312500 ]
  distance_from_gamma:  0.059308479
  weight: 8    
  band:
  - # 1
    frequency:     1.3972321322
  - # 2
    frequency:     1.5135670737
  - # 3
    frequency:     2.3567428887
  - # 4
    frequency:     2.5086138790
  - # 5
    frequency:     2.8887770387
  - # 6
    frequency:     4.6753860925
  - # 7
    frequency:     6.2014086873
  - # 8
    frequency:     6.5032450724
  - # 9
    frequency:     6.6868150282
  - # 10
    frequency:     6.9827448472
  - # 11
    frequency:     7.5724070868
  - # 12
    frequency:     8.0445885829

- q-position: [   -0.1562500,    0.0312500,    0.0312500 ]
  distance_from_gamma:  0.041586630
  weight: 8    
  band:
  - # 1
    frequency:     1.0240018432
  - # 2
    frequency:     1.0729805326
  - # 3
    frequency:     1.8006351570
  - # 4
    frequency:     2.3079036042
  - # 5
    frequency:     2.5601437525
  - # 6
    frequency:     4.7893270695
  - # 7
    frequency:     6.1363065670
  - # 8
    frequency:     6.4436912474
  - # 9
    frequency:     6.5588993819
  - # 10
    frequency:     6.7214233329
  - # 11
    frequency:     7.0717557134
  - # 12
    frequency:     8.1103694331

- q-position: [   -0.0937500,    0.0312500,    0.0312500 ]
  distance_from_gamma:  0.024322811
  weight: 8    
  band:
  - # 1
    frequency:     0.6012482560
  - # 2
    frequency:     0.6159266429
  - # 3
    frequency:     1.1011350111
  - # 4
    frequency:     2.2258096848
  - # 5
    frequency:     2.3178602729
  - # 6
    frequency:     4.9038977406
  - # 7
    frequency:     6.1017511753
  - # 8
    frequency:     6.3893535062
  - # 9
    frequency:     6.4428660015
  - # 10
    frequency:     6.5198771825
  - # 11
    frequency:     6.6361749623
  - # 12
    frequency:     8.1573353349

- q-position: [   -0.0312500,    0.0312500,    0.0312500 ]
  distance_from_gamma:  0.010195572
  weight: 4    
  band:
  - # 1
    frequency:     0.1915433503
  - # 2
    frequency:     0.2595916362
  - # 3
    frequency:     0.5224898675
  - # 4
    frequency:     2.1887310135
  - # 5
    frequency:     2.2030594896
  - # 6
    frequency:     4.9627310302
  - # 7
    frequency:     6.0948193124
  - # 8
    frequency:     6.3578869275
  - # 9
    frequency:     6.3890174518
  - # 10
    frequency:     6.4058591983
  - # 11
    frequency:     6.4213577086
  - # 12
    frequency:     8.1783889395

- q-position: [    0.0937500,    0.0937500,    0.0312500 ]
  distance_from_gamma:  0.047086062
  weight: 4    
  band:
  - # 1
    frequency:     1.1889242766
  - # 2
    frequency:     1.2128930096
  - # 3
    frequency:     1.9571410626
  - # 4
    frequency:     2.3958058017
  - # 5
    frequency:     2.6221366150
  - # 6
    frequency:     4.7493515571
  - # 7
    frequency:     6.1527283032
  - # 8
    frequency:     6.5190912038
  - # 9
    frequency:     6.5632388466
  - # 10
    frequency:     6.8010227621
  - # 11
    frequency:     7.2109788129
  - # 12
    frequency:     8.0908874256

- q-position: [    0.1562500,    0.0937500,    0.0312500 ]
  distance_from_gamma:  0.063286216
  weight: 8    
  band:
  - # 1
    frequency:     1.5466529188
  - # 2
    frequency:     1.6052071928
  - # 3
    frequency:     2.3161920796
  - # 4
    frequency:     2.7153885423
  - # 5
    frequency:     2.8880211713
  - # 6
    frequency:     4.6538673241
  - # 7
    frequency:     6.2192402336
  - # 8
    frequency:     6.5969829925
  - # 9
    frequency:     6.7080310699
  - # 10
    frequency:     7.0222175696
  - # 11
    frequency:     7.6443629739
  - # 12
    frequency:     8.0256245845

- q-position: [    0.2187500,    0.0937500,    0.0312500 ]
  distance_from_gamma:  0.080270744
  weight: 8    
  band:
  - # 1
    frequency:     1.8455877553
  - # 2
    frequency:     1.9615585518
  - # 3
    frequency:     2.4779481560
  - # 4
    frequency:     2.9474234495
  - # 5
    frequency:     3.3641444727
  - # 6
    frequency:     4.6376057838
  - # 7
    frequency:     6.3157411602
  - # 8
    frequency:     6.6408482489
  - # 9
    frequency:     6.8568347108
  - # 10
    frequency:     7.2439350626
  - # 11
    frequency:     7.9337652930
  - # 12
    frequency:     8.0494829127

- q-position: [    0.2812500,    0.0937500,    0.0312500 ]
  distance_from_gamma:  0.097631136
  weight: 8    
  band:
  - # 1
    frequency:     2.0726291116
  - # 2
    frequency:     2.2551785218
  - # 3
    frequency:     2.5785262120
  - # 4
    frequency:     2.9944374316
  - # 5
    frequency:     3.8925734533
  - # 6
    frequency:     4.7285176999
  - # 7
    frequency:     6.4380557346
  - # 8
    frequency:     6.6446883869
  - # 9
    frequency:     6.9788931237
  - # 10
    frequency:     7.4157408055
  - # 11
    frequency:     7.8896199720
  - # 12
    frequency:     8.3140413217

- q-position: [    0.3437500,    0.0937500,    0.0312500 ]
  distance_from_gamma:  0.115197588
  weight: 8    
  band:
  - # 1
    frequency:     2.2183546763
  - # 2
    frequency:     2.4759438097
  - # 3
    frequency:     2.6485234325
  - # 4
    frequency:     2.9474777090
  - # 5
    frequency:     4.3456211992
  - # 6
    frequency:     4.8513386765
  - # 7
    frequency:     6.5595533071
  - # 8
    frequency:     6.6331985501
  - # 9
    frequency:     7.0636925449
  - # 10
    frequency:     7.4674205284
  - # 11
    frequency:     7.9250283665
  - # 12
    frequency:     8.4479554365

- q-position: [    0.4062500,    0.0937500,    0.0312500 ]
  distance_from_gamma:  0.132888409
  weight: 8    
  band:
  - # 1
    frequency:     2.2867312881
  - # 2
    frequency:     2.6219277507
  - # 3
    frequency:     2.6940232123
  - # 4
    frequency:     2.8758355529
  - # 5
    frequency:     4.6756851787
  - # 6
    frequency:     4.8975203823
  - # 7
    frequency:     6.5714676437
  - # 8
    frequency:     6.7066763768
  - # 9
    frequency:     7.1081210667
  - # 10
    frequency:     7.4279910207
  - # 11
    frequency:     8.0211925493
  - # 12
    frequency:     8.4727641085

- q-position: [   -0.5312500,    0.0937500,    0.0312500 ]
  distance_from_gamma:  0.141765921
  weight: 8    
  band:
  - # 1
    frequency:     2.2985898772
  - # 2
    frequency:     2.6598528149
  - # 3
    frequency:     2.7040088600
  - # 4
    frequency:     2.8512927740
  - # 5
    frequency:     4.7791429912
  - # 6
    frequency:     4.8742004494
  - # 7
    frequency:     6.5658898296
  - # 8
    frequency:     6.7340928689
  - # 9
    frequency:     7.1162384338
  - # 10
    frequency:     7.4119781475
  - # 11
    frequency:     8.0512845396
  - # 12
    frequency:     8.4688275840

- q-position: [   -0.4687500,    0.0937500,    0.0312500 ]
  distance_from_gamma:  0.124030770
  weight: 8    
  band:
  - # 1
    frequency:     2.2610227044
  - # 2
    frequency:     2.5586749696
  - # 3
    frequency:     2.6748514076
  - # 4
    frequency:     2.9111051890
  - # 5
    frequency:     4.5285137663
  - # 6
    frequency:     4.8893005805
  - # 7
    frequency:     6.5774197772
  - # 8
    frequency:     6.6628091649
  - # 9
    frequency:     7.0908787649
  - # 10
    frequency:     7.4513272402
  - # 11
    frequency:     7.9733680483
  - # 12
    frequency:     8.4699444955

- q-position: [   -0.4062500,    0.0937500,    0.0312500 ]
  distance_from_gamma:  0.106394956
  weight: 8    
  band:
  - # 1
    frequency:     2.1559643741
  - # 2
    frequency:     2.3748053494
  - # 3
    frequency:     2.6164563388
  - # 4
    frequency:     2.9779324536
  - # 5
    frequency:     4.1319083581
  - # 6
    frequency:     4.7932659360
  - # 7
    frequency:     6.5034109538
  - # 8
    frequency:     6.6363451990
  - # 9
    frequency:     7.0263041639
  - # 10
    frequency:     7.4592174946
  - # 11
    frequency:     7.8936807570
  - # 12
    frequency:     8.3977028752

- q-position: [   -0.3437500,    0.0937500,    0.0312500 ]
  distance_from_gamma:  0.088917606
  weight: 8    
  band:
  - # 1
    frequency:     1.9687537820
  - # 2
    frequency:     2.1171679000
  - # 3
    frequency:     2.5331740130
  - # 4
    frequency:     2.9874495705
  - # 5
    frequency:     3.6337786090
  - # 6
    frequency:     4.6722092772
  - # 7
    frequency:     6.3743397122
  - # 8
    frequency:     6.6474307101
  - # 9
    frequency:     6.9220556642
  - # 10
    frequency:     7.3404171090
  - # 11
    frequency:     7.9082693244
  - # 12
    frequency:     8.1957470784

- q-position: [   -0.2812500,    0.0937500,    0.0312500 ]
  distance_from_gamma:  0.071714669
  weight: 8    
  band:
  - # 1
    frequency:     1.7044703077
  - # 2
    frequency:     1.7900200235
  - # 3
    frequency:     2.4089300952
  - # 4
    frequency:     2.8641163020
  - # 5
    frequency:     3.1008709660
  - # 6
    frequency:     4.6318469278
  - # 7
    frequency:     6.2638135786
  - # 8
    frequency:     6.6237583065
  - # 9
    frequency:     6.7847496149
  - # 10
    frequency:     7.1355732341
  - # 11
    frequency:     7.8446098558
  - # 12
    frequency:     7.9930605308

- q-position: [   -0.2187500,    0.0937500,    0.0312500 ]
  distance_from_gamma:  0.055044039
  weight: 8    
  band:
  - # 1
    frequency:     1.3737774363
  - # 2
    frequency:     1.4109517197
  - # 3
    frequency:     2.1730132028
  - # 4
    frequency:     2.5298119942
  - # 5
    frequency:     2.7429574978
  - # 6
    frequency:     4.6963150785
  - # 7
    frequency:     6.1822295257
  - # 8
    frequency:     6.5624796857
  - # 9
    frequency:     6.6307424912
  - # 10
    frequency:     6.9092983586
  - # 11
    frequency:     7.4277469995
  - # 12
    frequency:     8.0599795476

- q-position: [   -0.1562500,    0.0937500,    0.0312500 ]
  distance_from_gamma:  0.039584062
  weight: 8    
  band:
  - # 1
    frequency:     0.9992194689
  - # 2
    frequency:     1.0190649627
  - # 3
    frequency:     1.7022708620
  - # 4
    frequency:     2.3132174595
  - # 5
    frequency:     2.5154671273
  - # 6
    frequency:     4.8034905417
  - # 7
    frequency:     6.1305209892
  - # 8
    frequency:     6.4633461010
  - # 9
    frequency:     6.5209271932
  - # 10
    frequency:     6.7002660057
  - # 11
    frequency:     7.0089265901
  - # 12
    frequency:     8.1167864288

- q-position: [   -0.0937500,    0.0937500,    0.0312500 ]
  distance_from_gamma:  0.027461772
  weight: 4    
  band:
  - # 1
    frequency:     0.6848130968
  - # 2
    frequency:     0.6907577772
  - # 3
    frequency:     1.2351079748
  - # 4
    frequency:     2.2344420764
  - # 5
    frequency:     2.3576551601
  - # 6
    frequency:     4.8856059093
  - # 7
    frequency:     6.1059600613
  - # 8
    frequency:     6.3874686792
  - # 9
    frequency:     6.4808052123
  - # 10
    frequency:     6.5383498787
  - # 11
    frequency:     6.7089000616
  - # 12
    frequency:     8.1504437531

- q-position: [    0.1562500,    0.1562500,    0.0312500 ]
  distance_from_gamma:  0.078219516
  weight: 4    
  band:
  - # 1
    frequency:     1.8804818763
  - # 2
    frequency:     1.9221118860
  - # 3
    frequency:     2.4386025360
  - # 4
    frequency:     2.9814815755
  - # 5
    frequency:     3.2122536732
  - # 6
    frequency:     4.6234147967
  - # 7
    frequency:     6.3026924407
  - # 8
    frequency:     6.7322238812
  - # 9
    frequency:     6.8367259872
  - # 10
    frequency:     7.1898001281
  - # 11
    frequency:     7.9527375617
  - # 12
    frequency:     7.9566789995

- q-position: [    0.2187500,    0.1562500,    0.0312500 ]
  distance_from_gamma:  0.094242450
  weight: 8    
  band:
  - # 1
    frequency:     2.1473913765
  - # 2
    frequency:     2.2107219421
  - # 3
    frequency:     2.5609546215
  - # 4
    frequency:     3.0227426217
  - # 5
    frequency:     3.6714014872
  - # 6
    frequency:     4.6676298370
  - # 7
    frequency:     6.4148575505
  - # 8
    frequency:     6.8033000947
  - # 9
    frequency:     6.9959242721
  - # 10
    frequency:     7.3319170877
  - # 11
    frequency:     7.8864879661
  - # 12
    frequency:     8.1900850200

- q-position: [    0.2812500,    0.1562500,    0.0312500 ]
  distance_from_gamma:  0.110883657
  weight: 8    
  band:
  - # 1
    frequency:     2.3394899125
  - # 2
    frequency:     2.4450820556
  - # 3
    frequency:     2.6633006231
  - # 4
    frequency:     2.9883059432
  - # 5
    frequency:     4.0917440128
  - # 6
    frequency:     4.7521406991
  - # 7
    frequency:     6.5467021176
  - # 8
    frequency:     6.8234770061
  - # 9
    frequency:     7.1163270270
  - # 10
    frequency:     7.4247705216
  - # 11
    frequency:     7.8516651510
  - # 12
    frequency:     8.3271109211

- q-position: [    0.3437500,    0.1562500,    0.0312500 ]
  distance_from_gamma:  0.127902036
  weight: 8    
  band:
  - # 1
    frequency:     2.4618517717
  - # 2
    frequency:     2.6152587814
  - # 3
    frequency:     2.7317571268
  - # 4
    frequency:     2.9227703908
  - # 5
    frequency:     4.4337996352
  - # 6
    frequency:     4.8026206194
  - # 7
    frequency:     6.6675832221
  - # 8
    frequency:     6.8288271795
  - # 9
    frequency:     7.1688710643
  - # 10
    frequency:     7.4352676291
  - # 11
    frequency:     7.8930114902
  - # 12
    frequency:     8.3697996341

- q-position: [    0.4062500,    0.1562500,    0.0312500 ]
  distance_from_gamma:  0.145164993
  weight: 8    
  band:
  - # 1
    frequency:     2.5157348995
  - # 2
    frequency:     2.7118285685
  - # 3
    frequency:     2.7574763231
  - # 4
    frequency:     2.8688220130
  - # 5
    frequency:     4.6549386312
  - # 6
    frequency:     4.7681808586
  - # 7
    frequency:     6.7179786057
  - # 8
    frequency:     6.8552208599
  - # 9
    frequency:     7.1701492292
  - # 10
    frequency:     7.4152740395
  - # 11
    frequency:     7.9477247420
  - # 12
    frequency:     8.3646250515

- q-position: [   -0.5312500,    0.1562500,    0.0312500 ]
  distance_from_gamma:  0.136508711
  weight: 8    
  band:
  - # 1
    frequency:     2.4975559090
  - # 2
    frequency:     2.6746159013
  - # 3
    frequency:     2.7505036619
  - # 4
    frequency:     2.8907190745
  - # 5
    frequency:     4.5638215506
  - # 6
    frequency:     4.7957953955
  - # 7
    frequency:     6.7034339807
  - # 8
    frequency:     6.8412145841
  - # 9
    frequency:     7.1726995339
  - # 10
    frequency:     7.4236287634
  - # 11
    frequency:     7.9260567971
  - # 12
    frequency:     8.3688235232

- q-position: [   -0.4687500,    0.1562500,    0.0312500 ]
  distance_from_gamma:  0.119355700
  weight: 8    
  band:
  - # 1
    frequency:     2.4091647774
  - # 2
    frequency:     2.5384361043
  - # 3
    frequency:     2.7022927833
  - # 4
    frequency:     2.9569430126
  - # 5
    frequency:     4.2748242906
  - # 6
    frequency:     4.7861361509
  - # 7
    frequency:     6.6120440932
  - # 8
    frequency:     6.8248190611
  - # 9
    frequency:     7.1511335505
  - # 10
    frequency:     7.4395189490
  - # 11
    frequency:     7.8637303676
  - # 12
    frequency:     8.3583196232

- q-position: [   -0.4062500,    0.1562500,    0.0312500 ]
  distance_from_gamma:  0.102504329
  weight: 8    
  band:
  - # 1
    frequency:     2.2524298937
  - # 2
    frequency:     2.3356111539
  - # 3
    frequency:     2.6157602197
  - # 4
    frequency:     3.0120781301
  - # 5
    frequency:     3.8890653778
  - # 6
    frequency:     4.7093042142
  - # 7
    frequency:     6.4794523358
  - # 8
    frequency:     6.8179715656
  - # 9
    frequency:     7.0639665187
  - # 10
    frequency:     7.3872428489
  - # 11
    frequency:     7.8610740840
  - # 12
    frequency:     8.2716638839

- q-position: [   -0.3437500,    0.1562500,    0.0312500 ]
  distance_from_gamma:  0.086131824
  weight: 8    
  band:
  - # 1
    frequency:     2.0236151879
  - # 2
    frequency:     2.0719198706
  - # 3
    frequency:     2.5009484443
  - # 4
    frequency:     3.0144617484
  - # 5
    frequency:     3.4436479352
  - # 6
    frequency:     4.6367017109
  - # 7
    frequency:     6.3554714824
  - # 8
    frequency:     6.7758325886
  - # 9
    frequency:     6.9172056573
  - # 10
    frequency:     7.2649361418
  - # 11
    frequency:     7.9202050341
  - # 12
    frequency:     8.0828783463

- q-position: [   -0.2812500,    0.1562500,    0.0312500 ]
  distance_from_gamma:  0.070572261
  weight: 8    
  band:
  - # 1
    frequency:     1.7193881141
  - # 2
    frequency:     1.7652455349
  - # 3
    frequency:     2.3767741653
  - # 4
    frequency:     2.9040451007
  - # 5
    frequency:     3.0013813256
  - # 6
    frequency:     4.6300321332
  - # 7
    frequency:     6.2572087329
  - # 8
    frequency:     6.6701460868
  - # 9
    frequency:     6.7657210247
  - # 10
    frequency:     7.1083177243
  - # 11
    frequency:     7.8044216808
  - # 12
    frequency:     7.9924857117

- q-position: [   -0.2187500,    0.1562500,    0.0312500 ]
  distance_from_gamma:  0.056501293
  weight: 8    
  band:
  - # 1
    frequency:     1.3737002185
  - # 2
    frequency:     1.4472000010
  - # 3
    frequency:     2.2478886469
  - # 4
    frequency:     2.5088934194
  - # 5
    frequency:     2.8015419902
  - # 6
    frequency:     4.6887928992
  - # 7
    frequency:     6.1886598993
  - # 8
    frequency:     6.5279414295
  - # 9
    frequency:     6.6606606002
  - # 10
    frequency:     6.9341651753
  - # 11
    frequency:     7.4806225493
  - # 12
    frequency:     8.0547608484

- q-position: [   -0.1562500,    0.1562500,    0.0312500 ]
  distance_from_gamma:  0.045327116
  weight: 4    
  band:
  - # 1
    frequency:     1.0952988809
  - # 2
    frequency:     1.1701379868
  - # 3
    frequency:     1.9609637373
  - # 4
    frequency:     2.3168420361
  - # 5
    frequency:     2.6312026720
  - # 6
    frequency:     4.7627535149
  - # 7
    frequency:     6.1477686526
  - # 8
    frequency:     6.4458891418
  - # 9
    frequency:     6.5914388772
  - # 10
    frequency:     6.7733817122
  - # 11
    frequency:     7.1819257152
  - # 12
    frequency:     8.0976756610

- q-position: [    0.2187500,    0.2187500,    0.0312500 ]
  distance_from_gamma:  0.109407887
  weight: 4    
  band:
  - # 1
    frequency:     2.4017079193
  - # 2
    frequency:     2.4331313939
  - # 3
    frequency:     2.6686410418
  - # 4
    frequency:     3.0178294343
  - # 5
    frequency:     3.9698096532
  - # 6
    frequency:     4.7095020735
  - # 7
    frequency:     6.5394042358
  - # 8
    frequency:     6.9362468060
  - # 9
    frequency:     7.1521094054
  - # 10
    frequency:     7.3690426922
  - # 11
    frequency:     7.8330447854
  - # 12
    frequency:     8.2620398280

- q-position: [    0.2812500,    0.2187500,    0.0312500 ]
  distance_from_gamma:  0.125334478
  weight: 8    
  band:
  - # 1
    frequency:     2.5863593207
  - # 2
    frequency:     2.6134992784
  - # 3
    frequency:     2.7740029551
  - # 4
    frequency:     2.9771584198
  - # 5
    frequency:     4.2348790146
  - # 6
    frequency:     4.7222451689
  - # 7
    frequency:     6.6757855483
  - # 8
    frequency:     7.0087651625
  - # 9
    frequency:     7.2522719231
  - # 10
    frequency:     7.3939916748
  - # 11
    frequency:     7.8012787526
  - # 12
    frequency:     8.2705416735

- q-position: [    0.3437500,    0.2187500,    0.0312500 ]
  distance_from_gamma:  0.141765921
  weight: 8    
  band:
  - # 1
    frequency:     2.6997697473
  - # 2
    frequency:     2.7454508867
  - # 3
    frequency:     2.8409556162
  - # 4
    frequency:     2.9189799389
  - # 5
    frequency:     4.4468011401
  - # 6
    frequency:     4.6799591040
  - # 7
    frequency:     6.7884991605
  - # 8
    frequency:     7.0589882688
  - # 9
    frequency:     7.2027338965
  - # 10
    frequency:     7.4585635456
  - # 11
    frequency:     7.8036281646
  - # 12
    frequency:     8.2483046846

- q-position: [   -0.5937500,    0.2187500,    0.0312500 ]
  distance_from_gamma:  0.150119364
  weight: 8    
  band:
  - # 1
    frequency:     2.7228366202
  - # 2
    frequency:     2.7979779283
  - # 3
    frequency:     2.8369987262
  - # 4
    frequency:     2.8998949437
  - # 5
    frequency:     4.5173829366
  - # 6
    frequency:     4.6446336995
  - # 7
    frequency:     6.8161888023
  - # 8
    frequency:     7.0879558386
  - # 9
    frequency:     7.1631464363
  - # 10
    frequency:     7.4741191860
  - # 11
    frequency:     7.8091013481
  - # 12
    frequency:     8.2399828904

- q-position: [   -0.5312500,    0.2187500,    0.0312500 ]
  distance_from_gamma:  0.133498611
  weight: 8    
  band:
  - # 1
    frequency:     2.6534273798
  - # 2
    frequency:     2.6843230825
  - # 3
    frequency:     2.8151652196
  - # 4
    frequency:     2.9489599147
  - # 5
    frequency:     4.3491726037
  - # 6
    frequency:     4.7084069410
  - # 7
    frequency:     6.7387139420
  - # 8
    frequency:     7.0331488795
  - # 9
    frequency:     7.2394108989
  - # 10
    frequency:     7.4284995855
  - # 11
    frequency:     7.7988815902
  - # 12
    frequency:     8.2605354644

- q-position: [   -0.4687500,    0.2187500,    0.0312500 ]
  distance_from_gamma:  0.117295071
  weight: 8    
  band:
  - # 1
    frequency:     2.5024167020
  - # 2
    frequency:     2.5296443503
  - # 3
    frequency:     2.7237013908
  - # 4
    frequency:     3.0005470169
  - # 5
    frequency:     4.1075890384
  - # 6
    frequency:     4.7217323439
  - # 7
    frequency:     6.6075936052
  - # 8
    frequency:     6.9786315255
  - # 9
    frequency:     7.2199182113
  - # 10
    frequency:     7.3757793721
  - # 11
    frequency:     7.8130917860
  - # 12
    frequency:     8.2726023054

- q-position: [   -0.4062500,    0.2187500,    0.0312500 ]
  distance_from_gamma:  0.101708346