nqpoint: 255    
npath: 5      
segment_nqpoint:
- 51
- 51
- 51
- 51
- 51
labels:
- [ '$Gamma$', 'A' ]
- [ 'A', 'H' ]
- [ 'H', 'K' ]
- [ 'K', 'L' ]
- [ 'L', 'M' ]
reciprocal_lattice:
- [   0.25226382,  -0.14564458,   0.00000000 ] # a*
- [   0.25226382,   0.14564458,   0.00000000 ] # b*
- [   0.00000000,   0.00000000,   0.15385713 ] # c*
natom: 4      
lattice:
- [     1.982051998845760,    -3.433014765244304,     0.000000000000000 ] # a
- [     1.982051998845760,     3.433014765244304,     0.000000000000000 ] # b
- [     0.000000000000000,     0.000000000000000,     6.499536131492979 ] # c
points:
- symbol: Zn # 1
  coordinates: [  0.333333333333336,  0.666666666666664,  0.999941419792315 ]
  mass: 65.380000
- symbol: Zn # 2
  coordinates: [  0.666666666666664,  0.333333333333336,  0.499941419792315 ]
  mass: 65.380000
- symbol: S # 3
  coordinates: [  0.333333333333336,  0.666666666666664,  0.375058580207685 ]
  mass: 32.065000
- symbol: S # 4
  coordinates: [  0.666666666666664,  0.333333333333336,  0.875058580207685 ]
  mass: 32.065000

phonon:
- q-position: [    0.0000000,    0.0000000,    0.0000000 ]
  distance:    0.0000000
  band:
  - # 1
    frequency:    0.0000001319
  - # 2
    frequency:    0.0000001460
  - # 3
    frequency:    0.0000001765
  - # 4
    frequency:    2.1682103150
  - # 5
    frequency:    2.1682103150
  - # 6
    frequency:    5.2003553123
  - # 7
    frequency:    6.4960887196
  - # 8
    frequency:    6.7241580975
  - # 9
    frequency:    6.7241580975
  - # 10
    frequency:    6.7905178950
  - # 11
    frequency:    6.7905178950
  - # 12
    frequency:    8.5004187379

- q-position: [    0.0000000,    0.0000000,    0.0100000 ]
  distance:    0.0015386
  band:
  - # 1
    frequency:    0.0397964202
  - # 2
    frequency:    0.0397964202
  - # 3
    frequency:    0.0945395167
  - # 4
    frequency:    2.1680403612
  - # 5
    frequency:    2.1680403612
  - # 6
    frequency:    5.1992403887
  - # 7
    frequency:    6.4979322099
  - # 8
    frequency:    6.7241510492
  - # 9
    frequency:    6.7241510492
  - # 10
    frequency:    6.7904784039
  - # 11
    frequency:    6.7904784039
  - # 12
    frequency:    8.5013780843

- q-position: [    0.0000000,    0.0000000,    0.0200000 ]
  distance:    0.0030771
  band:
  - # 1
    frequency:    0.0795753085
  - # 2
    frequency:    0.0795753085
  - # 3
    frequency:    0.1890093882
  - # 4
    frequency:    2.1675303070
  - # 5
    frequency:    2.1675303070
  - # 6
    frequency:    5.1959035853
  - # 7
    frequency:    6.5034547955
  - # 8
    frequency:    6.7241299789
  - # 9
    frequency:    6.7241299789
  - # 10
    frequency:    6.7903600341
  - # 11
    frequency:    6.7903600341
  - # 12
    frequency:    8.5042461833

- q-position: [    0.0000000,    0.0000000,    0.0300000 ]
  distance:    0.0046157
  band:
  - # 1
    frequency:    0.1193191507
  - # 2
    frequency:    0.1193191507
  - # 3
    frequency:    0.2833402392
  - # 4
    frequency:    2.1666795748
  - # 5
    frequency:    2.1666795748
  - # 6
    frequency:    5.1903685997
  - # 7
    frequency:    6.5126328954
  - # 8
    frequency:    6.7240951094
  - # 9
    frequency:    6.7240951094
  - # 10
    frequency:    6.7901630965
  - # 11
    frequency:    6.7901630965
  - # 12
    frequency:    8.5089934210

- q-position: [    0.0000000,    0.0000000,    0.0400000 ]
  distance:    0.0061543
  band:
  - # 1
    frequency:    0.1590104668
  - # 2
    frequency:    0.1590104668
  - # 3
    frequency:    0.3774632295
  - # 4
    frequency:    2.1654872042
  - # 5
    frequency:    2.1654872042
  - # 6
    frequency:    5.1826742553
  - # 7
    frequency:    6.5254274561
  - # 8
    frequency:    6.7240468117
  - # 9
    frequency:    6.7240468117
  - # 10
    frequency:    6.7898881075
  - # 11
    frequency:    6.7898881075
  - # 12
    frequency:    8.5155711170

- q-position: [    0.0000000,    0.0000000,    0.0500000 ]
  distance:    0.0076929
  band:
  - # 1
    frequency:    0.1986318289
  - # 2
    frequency:    0.1986318289
  - # 3
    frequency:    0.4713103132
  - # 4
    frequency:    2.1639518551
  - # 5
    frequency:    2.1639518551
  - # 6
    frequency:    5.1728735303
  - # 7
    frequency:    6.5417843176
  - # 8
    frequency:    6.7239856026
  - # 9
    frequency:    6.7239856026
  - # 10
    frequency:    6.7895357885
  - # 11
    frequency:    6.7895357885
  - # 12
    frequency:    8.5239125019

- q-position: [    0.0000000,    0.0000000,    0.0600000 ]
  distance:    0.0092314
  band:
  - # 1
    frequency:    0.2381658785
  - # 2
    frequency:    0.2381658785
  - # 3
    frequency:    0.5648144864
  - # 4
    frequency:    2.1620718124
  - # 5
    frequency:    2.1620718124
  - # 6
    frequency:    5.1610322677
  - # 7
    frequency:    6.5616347159
  - # 8
    frequency:    6.7239121429
  - # 9
    frequency:    6.7239121429
  - # 10
    frequency:    6.7891070630
  - # 11
    frequency:    6.7891070630
  - # 12
    frequency:    8.5339340163

- q-position: [    0.0000000,    0.0000000,    0.0700000 ]
  distance:    0.0107700
  band:
  - # 1
    frequency:    0.2775953435
  - # 2
    frequency:    0.2775953435
  - # 3
    frequency:    0.6579100225
  - # 4
    frequency:    2.1598449915
  - # 5
    frequency:    2.1598449915
  - # 6
    frequency:    5.1472276292
  - # 7
    frequency:    6.5848959093
  - # 8
    frequency:    6.7238272347
  - # 9
    frequency:    6.7238272347
  - # 10
    frequency:    6.7886030542
  - # 11
    frequency:    6.7886030542
  - # 12
    frequency:    8.5455368695

- q-position: [    0.0000000,    0.0000000,    0.0800000 ]
  distance:    0.0123086
  band:
  - # 1
    frequency:    0.3169030555
  - # 2
    frequency:    0.3169030555
  - # 3
    frequency:    0.7505326900
  - # 4
    frequency:    2.1572689456
  - # 5
    frequency:    2.1572689456
  - # 6
    frequency:    5.1315463638
  - # 7
    frequency:    6.6114719172
  - # 8
    frequency:    6.7237318181
  - # 9
    frequency:    6.7237318181
  - # 10
    frequency:    6.7880250814
  - # 11
    frequency:    6.7880250814
  - # 12
    frequency:    8.5586087884

- q-position: [    0.0000000,    0.0000000,    0.0900000 ]
  distance:    0.0138471
  band:
  - # 1
    frequency:    0.3560719668
  - # 2
    frequency:    0.3560719668
  - # 3
    frequency:    0.8426199540
  - # 4
    frequency:    2.1543408738
  - # 5
    frequency:    2.1543408738
  - # 6
    frequency:    5.1140829627
  - # 7
    frequency:    6.6412543563
  - # 8
    frequency:    6.7236269669
  - # 9
    frequency:    6.7236269669
  - # 10
    frequency:    6.7873746562
  - # 11
    frequency:    6.7873746562
  - # 12
    frequency:    8.5730258848

- q-position: [    0.0000000,    0.0000000,    0.1000000 ]
  distance:    0.0153857
  band:
  - # 1
    frequency:    0.3950851681
  - # 2
    frequency:    0.3950851681
  - # 3
    frequency:    0.9341111574
  - # 4
    frequency:    2.1510576309
  - # 5
    frequency:    2.1510576309
  - # 6
    frequency:    5.0949377714
  - # 7
    frequency:    6.6741233586
  - # 8
    frequency:    6.7235138844
  - # 9
    frequency:    6.7235138844
  - # 10
    frequency:    6.7866534780
  - # 11
    frequency:    6.7866534780
  - # 12
    frequency:    8.5886545718

- q-position: [    0.0000000,    0.0000000,    0.1100000 ]
  distance:    0.0169243
  band:
  - # 1
    frequency:    0.4339259049
  - # 2
    frequency:    0.4339259049
  - # 3
    frequency:    1.0249476814
  - # 4
    frequency:    2.1474157378
  - # 5
    frequency:    2.1474157378
  - # 6
    frequency:    5.0742151215
  - # 7
    frequency:    6.7099485531
  - # 8
    frequency:    6.7233938983
  - # 9
    frequency:    6.7233938983
  - # 10
    frequency:    6.7858634285
  - # 11
    frequency:    6.7858634285
  - # 12
    frequency:    8.6053534678

- q-position: [    0.0000000,    0.0000000,    0.1200000 ]
  distance:    0.0184629
  band:
  - # 1
    frequency:    0.4725775947
  - # 2
    frequency:    0.4725775947
  - # 3
    frequency:    1.1150730868
  - # 4
    frequency:    2.1434113934
  - # 5
    frequency:    2.1434113934
  - # 6
    frequency:    5.0520215369
  - # 7
    frequency:    6.7232684548
  - # 8
    frequency:    6.7232684548
  - # 9
    frequency:    6.7485900961
  - # 10
    frequency:    6.7850065663
  - # 11
    frequency:    6.7850065663
  - # 12
    frequency:    8.6229752349

- q-position: [    0.0000000,    0.0000000,    0.1300000 ]
  distance:    0.0200014
  band:
  - # 1
    frequency:    0.5110238442
  - # 2
    frequency:    0.5110238442
  - # 3
    frequency:    1.2044332339
  - # 4
    frequency:    2.1390404877
  - # 5
    frequency:    2.1390404877
  - # 6
    frequency:    5.0284640566
  - # 7
    frequency:    6.7231391128
  - # 8
    frequency:    6.7231391128
  - # 9
    frequency:    6.7840851204
  - # 10
    frequency:    6.7840851204
  - # 11
    frequency:    6.7898997328
  - # 12
    frequency:    8.6413683098

- q-position: [    0.0000000,    0.0000000,    0.1400000 ]
  distance:    0.0215400
  band:
  - # 1
    frequency:    0.5492484654
  - # 2
    frequency:    0.5492484654
  - # 3
    frequency:    1.2929763828
  - # 4
    frequency:    2.1342986161
  - # 5
    frequency:    2.1342986161
  - # 6
    frequency:    5.0036487043
  - # 7
    frequency:    6.7230075368
  - # 8
    frequency:    6.7230075368
  - # 9
    frequency:    6.7831014834
  - # 10
    frequency:    6.7831014834
  - # 11
    frequency:    6.8337218733
  - # 12
    frequency:    8.6603784991

- q-position: [    0.0000000,    0.0000000,    0.1500000 ]
  distance:    0.0230786
  band:
  - # 1
    frequency:    0.5872354930
  - # 2
    frequency:    0.5872354930
  - # 3
    frequency:    1.3806532761
  - # 4
    frequency:    2.1291810942
  - # 5
    frequency:    2.1291810942
  - # 6
    frequency:    4.9776791267
  - # 7
    frequency:    6.7228754900
  - # 8
    frequency:    6.7228754900
  - # 9
    frequency:    6.7820582040
  - # 10
    frequency:    6.7820582040
  - # 11
    frequency:    6.8798946699
  - # 12
    frequency:    8.6798504180

- q-position: [    0.0000000,    0.0000000,    0.1600000 ]
  distance:    0.0246171
  band:
  - # 1
    frequency:    0.6249692005
  - # 2
    frequency:    0.6249692005
  - # 3
    frequency:    1.4674172036
  - # 4
    frequency:    2.1236829742
  - # 5
    frequency:    2.1236829742
  - # 6
    frequency:    4.9506554094
  - # 7
    frequency:    6.7227448263
  - # 8
    frequency:    6.7227448263
  - # 9
    frequency:    6.7809579794
  - # 10
    frequency:    6.7809579794
  - # 11
    frequency:    6.9282510805
  - # 12
    frequency:    8.6996287647

- q-position: [    0.0000000,    0.0000000,    0.1700000 ]
  distance:    0.0261557
  band:
  - # 1
    frequency:    0.6624341165
  - # 2
    frequency:    0.6624341165
  - # 3
    frequency:    1.5532240522
  - # 4
    frequency:    2.1177990623
  - # 5
    frequency:    2.1177990623
  - # 6
    frequency:    4.9226730727
  - # 7
    frequency:    6.7226174826
  - # 8
    frequency:    6.7226174826
  - # 9
    frequency:    6.7798036464
  - # 10
    frequency:    6.7798036464
  - # 11
    frequency:    6.9786199077
  - # 12
    frequency:    8.7195594289

- q-position: [    0.0000000,    0.0000000,    0.1800000 ]
  distance:    0.0276943
  band:
  - # 1
    frequency:    0.6996150412
  - # 2
    frequency:    0.6996150412
  - # 3
    frequency:    1.6380323420
  - # 4
    frequency:    2.1115239365
  - # 5
    frequency:    2.1115239365
  - # 6
    frequency:    4.8938222435
  - # 7
    frequency:    6.7224954697
  - # 8
    frequency:    6.7224954697
  - # 9
    frequency:    6.7785981727
  - # 10
    frequency:    6.7785981727
  - # 11
    frequency:    7.0308268018
  - # 12
    frequency:    8.7394904404

- q-position: [    0.0000000,    0.0000000,    0.1900000 ]
  distance:    0.0292329
  band:
  - # 1
    frequency:    0.7364970623
  - # 2
    frequency:    0.7364970623
  - # 3
    frequency:    1.7218032513
  - # 4
    frequency:    2.1048519657
  - # 5
    frequency:    2.1048519657
  - # 6
    frequency:    4.8641869940
  - # 7
    frequency:    6.7223808636
  - # 8
    frequency:    6.7223808636
  - # 9
    frequency:    6.7773446475
  - # 10
    frequency:    6.7773446475
  - # 11
    frequency:    7.0846952210
  - # 12
    frequency:    8.7592727667

- q-position: [    0.0000000,    0.0000000,    0.2000000 ]
  distance:    0.0307714
  band:
  - # 1
    frequency:    0.7730655707
  - # 2
    frequency:    0.7730655707
  - # 3
    frequency:    1.8045006316
  - # 4
    frequency:    2.0977773300
  - # 5
    frequency:    2.0977773300
  - # 6
    frequency:    4.8338448347
  - # 7
    frequency:    6.7222757962
  - # 8
    frequency:    6.7222757962
  - # 9
    frequency:    6.7760462716
  - # 10
    frequency:    6.7760462716
  - # 11
    frequency:    7.1400473404
  - # 12
    frequency:    8.7787609738

- q-position: [    0.0000000,    0.0000000,    0.2100000 ]
  distance:    0.0323100
  band:
  - # 1
    frequency:    0.8093062759
  - # 2
    frequency:    0.8093062759
  - # 3
    frequency:    1.8860910151
  - # 4
    frequency:    2.0902940407
  - # 5
    frequency:    2.0902940407
  - # 6
    frequency:    4.8028663480
  - # 7
    frequency:    6.7221824454
  - # 8
    frequency:    6.7221824454
  - # 9
    frequency:    6.7747063471
  - # 10
    frequency:    6.7747063471
  - # 11
    frequency:    7.1967049060
  - # 12
    frequency:    8.7978137639

- q-position: [    0.0000000,    0.0000000,    0.2200000 ]
  distance:    0.0338486
  band:
  - # 1
    frequency:    0.8452052217
  - # 2
    frequency:    0.8452052217
  - # 3
    frequency:    1.9665436160
  - # 4
    frequency:    2.0823959621
  - # 5
    frequency:    2.0823959621
  - # 6
    frequency:    4.7713149480
  - # 7
    frequency:    6.7221030252
  - # 8
    frequency:    6.7221030252
  - # 9
    frequency:    6.7733282670
  - # 10
    frequency:    6.7733282670
  - # 11
    frequency:    7.2544900292
  - # 12
    frequency:    8.8162944054

- q-position: [    0.0000000,    0.0000000,    0.2300000 ]
  distance:    0.0353871
  band:
  - # 1
    frequency:    0.8807488006
  - # 2
    frequency:    0.8807488006
  - # 3
    frequency:    2.0458303275
  - # 4
    frequency:    2.0740768337
  - # 5
    frequency:    2.0740768337
  - # 6
    frequency:    4.7392467506
  - # 7
    frequency:    6.7220397752
  - # 8
    frequency:    6.7220397752
  - # 9
    frequency:    6.7719155038
  - # 10
    frequency:    6.7719155038
  - # 11
    frequency:    7.3132259213
  - # 12
    frequency:    8.8340710707

- q-position: [    0.0000000,    0.0000000,    0.2400000 ]
  distance:    0.0369257
  band:
  - # 1
    frequency:    0.9159237692
  - # 2
    frequency:    0.9159237692
  - # 3
    frequency:    2.0653302924
  - # 4
    frequency:    2.0653302924
  - # 5
    frequency:    2.1239257157
  - # 6
    frequency:    4.7067105407
  - # 7
    frequency:    6.7219949503
  - # 8
    frequency:    6.7219949503
  - # 9
    frequency:    6.7704715982
  - # 10
    frequency:    6.7704715982
  - # 11
    frequency:    7.3727375649
  - # 12
    frequency:    8.8510170960

- q-position: [    0.0000000,    0.0000000,    0.2500000 ]
  distance:    0.0384643
  band:
  - # 1
    frequency:    0.9507172614
  - # 2
    frequency:    0.9507172614
  - # 3
    frequency:    2.0561498961
  - # 4
    frequency:    2.0561498961
  - # 5
    frequency:    2.2008070117
  - # 6
    frequency:    4.6737478227
  - # 7
    frequency:    6.7219708097
  - # 8
    frequency:    6.7219708097
  - # 9
    frequency:    6.7690001479
  - # 10
    frequency:    6.7690001479
  - # 11
    frequency:    7.4328523248
  - # 12
    frequency:    8.8670111754

- q-position: [    0.0000000,    0.0000000,    0.2600000 ]
  distance:    0.0400029
  band:
  - # 1
    frequency:    0.9851168035
  - # 2
    frequency:    0.9851168035
  - # 3
    frequency:    2.0465291473
  - # 4
    frequency:    2.0465291473
  - # 5
    frequency:    2.2764541021
  - # 6
    frequency:    4.6403929417
  - # 7
    frequency:    6.7219696064
  - # 8
    frequency:    6.7219696064
  - # 9
    frequency:    6.7675047953
  - # 10
    frequency:    6.7675047953
  - # 11
    frequency:    7.4934004990
  - # 12
    frequency:    8.8819375023

- q-position: [    0.0000000,    0.0000000,    0.2700000 ]
  distance:    0.0415414
  band:
  - # 1
    frequency:    1.0191103265
  - # 2
    frequency:    1.0191103265
  - # 3
    frequency:    2.0364615170
  - # 4
    frequency:    2.0364615170
  - # 5
    frequency:    2.3508495198
  - # 6
    frequency:    4.6066732656
  - # 7
    frequency:    6.7219935756
  - # 8
    frequency:    6.7219935756
  - # 9
    frequency:    6.7659892154
  - # 10
    frequency:    6.7659892154
  - # 11
    frequency:    7.5542158104
  - # 12
    frequency:    8.8956858678

- q-position: [    0.0000000,    0.0000000,    0.2800000 ]
  distance:    0.0430800
  band:
  - # 1
    frequency:    1.0526861799
  - # 2
    frequency:    1.0526861799
  - # 3
    frequency:    2.0259404692
  - # 4
    frequency:    2.0259404692
  - # 5
    frequency:    2.4239784344
  - # 6
    frequency:    4.5726094158
  - # 7
    frequency:    6.7220449239
  - # 8
    frequency:    6.7220449239
  - # 9
    frequency:    6.7644571040
  - # 10
    frequency:    6.7644571040
  - # 11
    frequency:    7.6151358440
  - # 12
    frequency:    8.9081517254

- q-position: [    0.0000000,    0.0000000,    0.2900000 ]
  distance:    0.0446186
  band:
  - # 1
    frequency:    1.0858331438
  - # 2
    frequency:    1.0858331438
  - # 3
    frequency:    2.0149594858
  - # 4
    frequency:    2.0149594858
  - # 5
    frequency:    2.4958286426
  - # 6
    frequency:    4.5382155414
  - # 7
    frequency:    6.7221258183
  - # 8
    frequency:    6.7221258183
  - # 9
    frequency:    6.7629121645
  - # 10
    frequency:    6.7629121645
  - # 11
    frequency:    7.6760024317
  - # 12
    frequency:    8.9192362291

- q-position: [    0.0000000,    0.0000000,    0.3000000 ]
  distance:    0.0461571
  band:
  - # 1
    frequency:    1.1185404407
  - # 2
    frequency:    1.1185404407
  - # 3
    frequency:    2.0035120911
  - # 4
    frequency:    2.0035120911
  - # 5
    frequency:    2.5663905593
  - # 6
    frequency:    4.5034996251
  - # 7
    frequency:    6.7222383749
  - # 8
    frequency:    6.7222383749
  - # 9
    frequency:    6.7613580966
  - # 10
    frequency:    6.7613580966
  - # 11
    frequency:    7.7366619871
  - # 12
    frequency:    8.9288462527

- q-position: [    0.0000000,    0.0000000,    0.3100000 ]
  distance:    0.0476957
  band:
  - # 1
    frequency:    1.1507977471
  - # 2
    frequency:    1.1507977471
  - # 3
    frequency:    1.9915918768
  - # 4
    frequency:    1.9915918768
  - # 5
    frequency:    2.6356572081
  - # 6
    frequency:    4.4684638173
  - # 7
    frequency:    6.7223846477
  - # 8
    frequency:    6.7223846477
  - # 9
    frequency:    6.7597985825
  - # 10
    frequency:    6.7597985825
  - # 11
    frequency:    7.7969657959
  - # 12
    frequency:    8.9368943938

- q-position: [    0.0000000,    0.0000000,    0.3200000 ]
  distance:    0.0492343
  band:
  - # 1
    frequency:    1.1825952041
  - # 2
    frequency:    1.1825952041
  - # 3
    frequency:    1.9791925273
  - # 4
    frequency:    1.9791925273
  - # 5
    frequency:    2.7036242119
  - # 6
    frequency:    4.4331047909
  - # 7
    frequency:    6.7225666180
  - # 8
    frequency:    6.7225666180
  - # 9
    frequency:    6.7582372758
  - # 10
    frequency:    6.7582372758
  - # 11
    frequency:    7.8567702638
  - # 12
    frequency:    8.9432989682

- q-position: [    0.0000000,    0.0000000,    0.3300000 ]
  distance:    0.0507729
  band:
  - # 1
    frequency:    1.2139234273
  - # 2
    frequency:    1.2139234273
  - # 3
    frequency:    1.9663078443
  - # 4
    frequency:    1.9663078443
  - # 5
    frequency:    2.7702897822
  - # 6
    frequency:    4.3974141117
  - # 7
    frequency:    6.7227861834
  - # 8
    frequency:    6.7227861834
  - # 9
    frequency:    6.7566777880
  - # 10
    frequency:    6.7566777880
  - # 11
    frequency:    7.9159371264
  - # 12
    frequency:    8.9479839983

- q-position: [    0.0000000,    0.0000000,    0.3400000 ]
  distance:    0.0523114
  band:
  - # 1
    frequency:    1.2447735161
  - # 2
    frequency:    1.2447735161
  - # 3
    frequency:    1.9529317715
  - # 4
    frequency:    1.9529317715
  - # 5
    frequency:    2.8356547073
  - # 6
    frequency:    4.3613786201
  - # 7
    frequency:    6.7230451475
  - # 8
    frequency:    6.7230451475
  - # 9
    frequency:    6.7551236770
  - # 10
    frequency:    6.7551236770
  - # 11
    frequency:    7.9743336249
  - # 12
    frequency:    8.9508791971

- q-position: [    0.0000000,    0.0000000,    0.3500000 ]
  distance:    0.0538500
  band:
  - # 1
    frequency:    1.2751370623
  - # 2
    frequency:    1.2751370623
  - # 3
    frequency:    1.9390584196
  - # 4
    frequency:    1.9390584196
  - # 5
    frequency:    2.8997223377
  - # 6
    frequency:    4.3249808203
  - # 7
    frequency:    6.7233452094
  - # 8
    frequency:    6.7233452094
  - # 9
    frequency:    6.7535784347
  - # 10
    frequency:    6.7535784347
  - # 11
    frequency:    8.0318326499
  - # 12
    frequency:    8.9519199508

- q-position: [    0.0000000,    0.0000000,    0.3600000 ]
  distance:    0.0553886
  band:
  - # 1
    frequency:    1.3050061578
  - # 2
    frequency:    1.3050061578
  - # 3
    frequency:    1.9246820902
  - # 4
    frequency:    1.9246820902
  - # 5
    frequency:    2.9624985689
  - # 6
    frequency:    4.2881992725
  - # 7
    frequency:    6.7236879537
  - # 8
    frequency:    6.7236879537
  - # 9
    frequency:    6.7520454754
  - # 10
    frequency:    6.7520454754
  - # 11
    frequency:    8.0883128587
  - # 12
    frequency:    8.9510473026

- q-position: [    0.0000000,    0.0000000,    0.3700000 ]
  distance:    0.0569271
  band:
  - # 1
    frequency:    1.3343734014
  - # 2
    frequency:    1.3343734014
  - # 3
    frequency:    1.9097972997
  - # 4
    frequency:    1.9097972997
  - # 5
    frequency:    3.0239918201
  - # 6
    frequency:    4.2510089859
  - # 7
    frequency:    6.7240748411
  - # 8
    frequency:    6.7240748411
  - # 9
    frequency:    6.7505281242
  - # 10
    frequency:    6.7505281242
  - # 11
    frequency:    8.1436587672
  - # 12
    frequency:    8.9482079371

- q-position: [    0.0000000,    0.0000000,    0.3800000 ]
  distance:    0.0584657
  band:
  - # 1
    frequency:    1.3632319050
  - # 2
    frequency:    1.3632319050
  - # 3
    frequency:    1.8943988032
  - # 4
    frequency:    1.8943988032
  - # 5
    frequency:    3.0842130082
  - # 6
    frequency:    4.2133818090
  - # 7
    frequency:    6.7245071993
  - # 8
    frequency:    6.7245071993
  - # 9
    frequency:    6.7490296059
  - # 10
    frequency:    6.7490296059
  - # 11
    frequency:    8.1977608201
  - # 12
    frequency:    8.9433541672

- q-position: [    0.0000000,    0.0000000,    0.3900000 ]
  distance:    0.0600043
  band:
  - # 1
    frequency:    1.3915752981
  - # 2
    frequency:    1.3915752981
  - # 3
    frequency:    1.8784816171
  - # 4
    frequency:    1.8784816171
  - # 5
    frequency:    3.1431755157
  - # 6
    frequency:    4.1752868157
  - # 7
    frequency:    6.7249862143
  - # 8
    frequency:    6.7249862143
  - # 9
    frequency:    6.7475530343
  - # 10
    frequency:    6.7475530343
  - # 11
    frequency:    8.2505154431
  - # 12
    frequency:    8.9364439251

- q-position: [    0.0000000,    0.0000000,    0.4000000 ]
  distance:    0.0615429
  band:
  - # 1
    frequency:    1.4193977326
  - # 2
    frequency:    1.4193977326
  - # 3
    frequency:    1.8620410415
  - # 4
    frequency:    1.8620410415
  - # 5
    frequency:    3.2008951523
  - # 6
    frequency:    4.1366906830
  - # 7
    frequency:    6.7255129218
  - # 8
    frequency:    6.7255129218
  - # 9
    frequency:    6.7461014017
  - # 10
    frequency:    6.7461014017
  - # 11
    frequency:    8.3018250779
  - # 12
    frequency:    8.9274407554

- q-position: [    0.0000000,    0.0000000,    0.4100000 ]
  distance:    0.0630814
  band:
  - # 1
    frequency:    1.4466938851
  - # 2
    frequency:    1.4466938851
  - # 3
    frequency:    1.8450726818
  - # 4
    frequency:    1.8450726818
  - # 5
    frequency:    3.2573901086
  - # 6
    frequency:    4.0975580613
  - # 7
    frequency:    6.7260882003
  - # 8
    frequency:    6.7260882003
  - # 9
    frequency:    6.7446775695
  - # 10
    frequency:    6.7446775695
  - # 11
    frequency:    8.3515982038
  - # 12
    frequency:    8.9163138141

- q-position: [    0.0000000,    0.0000000,    0.4200000 ]
  distance:    0.0646200
  band:
  - # 1
    frequency:    1.4734589594
  - # 2
    frequency:    1.4734589594
  - # 3
    frequency:    1.8275724701
  - # 4
    frequency:    1.8275724701
  - # 5
    frequency:    3.3126809012
  - # 6
    frequency:    4.0578519324
  - # 7
    frequency:    6.7267127637
  - # 8
    frequency:    6.7267127637
  - # 9
    frequency:    6.7432842585
  - # 10
    frequency:    6.7432842585
  - # 11
    frequency:    8.3997493469
  - # 12
    frequency:    8.9030378693

- q-position: [    0.0000000,    0.0000000,    0.4300000 ]
  distance:    0.0661586
  band:
  - # 1
    frequency:    1.4996886875
  - # 2
    frequency:    1.4996886875
  - # 3
    frequency:    1.8095366850
  - # 4
    frequency:    1.8095366850
  - # 5
    frequency:    3.3667903079
  - # 6
    frequency:    4.0175339566
  - # 7
    frequency:    6.7273871550
  - # 8
    frequency:    6.7273871550
  - # 9
    frequency:    6.7419240409
  - # 10
    frequency:    6.7419240409
  - # 11
    frequency:    8.4461990798
  - # 12
    frequency:    8.8875933078

- q-position: [    0.0000000,    0.0000000,    0.4400000 ]
  distance:    0.0676971
  band:
  - # 1
    frequency:    1.5253793288
  - # 2
    frequency:    1.5253793288
  - # 3
    frequency:    1.7909619710
  - # 4
    frequency:    1.7909619710
  - # 5
    frequency:    3.4197432929
  - # 6
    frequency:    3.9765648058
  - # 7
    frequency:    6.7281117408
  - # 8
    frequency:    6.7281117408
  - # 9
    frequency:    6.7405993318
  - # 10
    frequency:    6.7405993318
  - # 11
    frequency:    8.4908740121
  - # 12
    frequency:    8.8699661449

- q-position: [    0.0000000,    0.0000000,    0.4500000 ]
  distance:    0.0692357
  band:
  - # 1
    frequency:    1.5505276695
  - # 2
    frequency:    1.5505276695
  - # 3
    frequency:    1.7718453570
  - # 4
    frequency:    1.7718453570
  - # 5
    frequency:    3.4715669203
  - # 6
    frequency:    3.9349044822
  - # 7
    frequency:    6.7288867062
  - # 8
    frequency:    6.7288867062
  - # 9
    frequency:    6.7393123821
  - # 10
    frequency:    6.7393123821
  - # 11
    frequency:    8.5337067757
  - # 12
    frequency:    8.8501480377

- q-position: [    0.0000000,    0.0000000,    0.4600000 ]
  distance:    0.0707743
  band:
  - # 1
    frequency:    1.5751310196
  - # 2
    frequency:    1.5751310196
  - # 3
    frequency:    1.7521842737
  - # 4
    frequency:    1.7521842737
  - # 5
    frequency:    3.5222902551
  - # 6
    frequency:    3.8925126214
  - # 7
    frequency:    6.7297120508
  - # 8
    frequency:    6.7297120508
  - # 9
    frequency:    6.7380652719
  - # 10
    frequency:    6.7380652719
  - # 11
    frequency:    8.5746360025
  - # 12
    frequency:    8.8281363024

- q-position: [    0.0000000,    0.0000000,    0.4700000 ]
  distance:    0.0723129
  band:
  - # 1
    frequency:    1.5991872094
  - # 2
    frequency:    1.5991872094
  - # 3
    frequency:    1.7319765700
  - # 4
    frequency:    1.7319765700
  - # 5
    frequency:    3.5719442515
  - # 6
    frequency:    3.8493487808
  - # 7
    frequency:    6.7305875854
  - # 8
    frequency:    6.7305875854
  - # 9
    frequency:    6.7368599051
  - # 10
    frequency:    6.7368599051
  - # 11
    frequency:    8.6136063001
  - # 12
    frequency:    8.8039339351

- q-position: [    0.0000000,    0.0000000,    0.4800000 ]
  distance:    0.0738514
  band:
  - # 1
    frequency:    1.6226945849
  - # 2
    frequency:    1.6226945849
  - # 3
    frequency:    1.7112205286
  - # 4
    frequency:    1.7112205286
  - # 5
    frequency:    3.6205616273
  - # 6
    frequency:    3.8053727098
  - # 7
    frequency:    6.7315129291
  - # 8
    frequency:    6.7315129291
  - # 9
    frequency:    6.7356980037
  - # 10
    frequency:    6.7356980037
  - # 11
    frequency:    8.6505682224
  - # 12
    frequency:    8.7775496348

- q-position: [    0.0000000,    0.0000000,    0.4900000 ]
  distance:    0.0753900
  band:
  - # 1
    frequency:    1.6456520013
  - # 2
    frequency:    1.6456520013
  - # 3
    frequency:    1.6899148800
  - # 4
    frequency:    1.6899148800
  - # 5
    frequency:    3.6681767231
  - # 6
    frequency:    3.7605446050
  - # 7
    frequency:    6.7324875079
  - # 8
    frequency:    6.7324875079
  - # 9
    frequency:    6.7345811042
  - # 10
    frequency:    6.7345811042
  - # 11
    frequency:    8.6854782399
  - # 12
    frequency:    8.7489978300

- q-position: [    0.0000000,    0.0000000,    0.5000000 ]
  distance:    0.0769286
  band:
  - # 1
    frequency:    1.6680588159
  - # 2
    frequency:    1.6680588159
  - # 3
    frequency:    1.6680588159
  - # 4
    frequency:    1.6680588159
  - # 5
    frequency:    3.7148253474
  - # 6
    frequency:    3.7148253474
  - # 7
    frequency:    6.7335105537
  - # 8
    frequency:    6.7335105537
  - # 9
    frequency:    6.7335105537
  - # 10
    frequency:    6.7335105537
  - # 11
    frequency:    8.7182987069
  - # 12
    frequency:    8.7182987069

- q-position: [    0.0000000,    0.0000000,    0.5000000 ]
  distance:    0.0769286
  band:
  - # 1
    frequency:    1.6680588159
  - # 2
    frequency:    1.6680588159