72   
4    

1    
  0.0033749968256213  -0.0058456659773597   0.0073781830899067
  -0.0153046600    0.0270694100   -0.0350851700
   0.0013314100   -0.0025155100   -0.0009781400
  -0.0000911600   -0.0058088300   -0.0029496400
  -0.0006995800   -0.0016491700   -0.0012156500
  -0.0003480600    0.0028978600   -0.0026972200
   0.0004379300   -0.0007436200   -0.0009225500
  -0.0021175900   -0.0012229100   -0.0002315400
   0.0004405500   -0.0007472600   -0.0009224000
   0.0042874700    0.0043393100   -0.0036815500
   0.0000500500   -0.0000655600    0.0019874100
   0.0003947300   -0.0001814200    0.0000048900
   0.0001472300    0.0007392300    0.0008405000
  -0.0001860100    0.0005817800    0.0003464900
   0.0005205100   -0.0002716300    0.0005021700
   0.0000424200   -0.0000535700    0.0002664000
  -0.0004299600   -0.0000877600   -0.0000809700
   0.0000453000   -0.0000530400    0.0002701000
  -0.0006122800   -0.0003957900    0.0009277000
   0.0000883300   -0.0046996300    0.0023769900
  -0.0000913100   -0.0008730800    0.0002449100
  -0.0057720300    0.0032105300    0.0003983700
   0.0049826000    0.0026464200    0.0013852200
   0.0005744400    0.0000669300    0.0001891000
  -0.0003569100    0.0001180800    0.0000277400
   0.0004378600   -0.0006685700    0.0002491300
   0.0003449300    0.0002872300    0.0002328400
  -0.0006114100    0.0004494900    0.0001090600
   0.0000943900    0.0021812800   -0.0030950900
   0.0003520300   -0.0006136900    0.0002397300
   0.0001780100   -0.0002321600    0.0058505000
  -0.0009720800   -0.0007908800    0.0013791500
   0.0002287800    0.0002634000   -0.0001212400
  -0.0003527000   -0.0002769600    0.0003431100
  -0.0000061300   -0.0004148000   -0.0001532600
   0.0003485000   -0.0002278100    0.0006344100
  -0.0002697900    0.0006550500    0.0001048200
   0.0018765400   -0.0032487000    0.0173048100
  -0.0006117300    0.0011751500    0.0000609000
   0.0005383700   -0.0001009800    0.0013617800
  -0.0003898800   -0.0005371600    0.0006860200
  -0.0009784200   -0.0003935200    0.0007163200
  -0.0000479600    0.0000942300    0.0004265400
   0.0006818700    0.0009493900    0.0000444900
  -0.0001446100    0.0002498300    0.0004474200
   0.0005174800   -0.0005655000    0.0013785500
   0.0004067700   -0.0006784300   -0.0013810700
  -0.0005520900    0.0002377800    0.0005381800
  -0.0000394800    0.0006253900   -0.0012040200
   0.0002226100    0.0000289100   -0.0001587700
  -0.0000617300   -0.0000745100   -0.0005037600
  -0.0000114400    0.0000568300   -0.0001152100
   0.0006114700    0.0000953800    0.0006923100
  -0.0001430300    0.0002636100   -0.0002047000
  -0.0004546900   -0.0004087200   -0.0013690600
  -0.0000541200    0.0005111900   -0.0011857400
  -0.0001329700    0.0001905900   -0.0000690400
   0.0010479400   -0.0005741900   -0.0017205000
  -0.0007806500   -0.0003817900   -0.0014420900
  -0.0002409300   -0.0000254400   -0.0000479100
   0.0001324500   -0.0000867100   -0.0000604900
  -0.0000090200    0.0001546000   -0.0000164300
  -0.0001242400    0.0000902100   -0.0001212000
   0.0002696900   -0.0001839600   -0.0000443200
   0.0015896400   -0.0079949900    0.0020199100
  -0.0008357800    0.0019007700    0.0004213700
   0.0137548900   -0.0098256200    0.0089559000
  -0.0024442800   -0.0051342500    0.0055892800
  -0.0004439300   -0.0002103400    0.0005051300
   0.0004075100    0.0011083200    0.0004173100
   0.0003406400    0.0009822700    0.0003126700
  -0.0010437400   -0.0002842100    0.0005421800
   0.0000409900   -0.0009177700    0.0004469000

1    
 -0.0033749968256213   0.0058456659773597  -0.0073781830899067
   0.0162675000   -0.0275115300    0.0342431600
  -0.0013332000    0.0025375100    0.0006745000
   0.0000821200    0.0058611000    0.0026452200
   0.0007062700    0.0016858900    0.0009171200
   0.0003547700   -0.0028705300    0.0024030900
  -0.0004401900    0.0007786900    0.0006304100
   0.0021225600    0.0012576400   -0.0000662600
  -0.0004405400    0.0007825800    0.0006308700
  -0.0042996000   -0.0043148600    0.0033885400
  -0.0000482300    0.0001021700   -0.0022927700
  -0.0003970800    0.0002170100   -0.0002907800
  -0.0001497600   -0.0007038200   -0.0011309800
   0.0001819800   -0.0005511400   -0.0006292200
  -0.0005188300    0.0003081400   -0.0007922900
  -0.0000398600    0.0000901000   -0.0005649900
   0.0004322000    0.0001275200   -0.0002102100
  -0.0000380700    0.0000851900   -0.0005583800
   0.0006107100    0.0004308500   -0.0012081500
  -0.0000943700    0.0046691700   -0.0026459100
   0.0000848500    0.0008314700   -0.0005267500
   0.0057652500   -0.0032385200   -0.0006875200
  -0.0049821700   -0.0026828300   -0.0016713200
  -0.0005724700   -0.0001004500   -0.0004742700
   0.0003595800   -0.0001561200   -0.0003248700
  -0.0004320300    0.0006330200   -0.0005389000
  -0.0003485600   -0.0003158800   -0.0005210600
   0.0006154500   -0.0004943300   -0.0004006900
  -0.0000897100   -0.0022225800    0.0028025300
  -0.0003514200    0.0005781200   -0.0005275900
  -0.0002116100    0.0002090500   -0.0061446200
   0.0009898000    0.0007667300   -0.0016707100
  -0.0002319500   -0.0002973700   -0.0001617100
   0.0003595600    0.0002362400   -0.0006351400
   0.0000040600    0.0003787800   -0.0001285700
  -0.0003436800    0.0001901100   -0.0009253400
   0.0002746800   -0.0006840700   -0.0003997600
  -0.0018962600    0.0033057700   -0.0161824200
   0.0005896900   -0.0011160800    0.0002213300
  -0.0005048000    0.0001209700   -0.0010756100
   0.0003663700    0.0005705600   -0.0004116300
   0.0009711000    0.0004129900   -0.0004521900
   0.0000617000   -0.0000795100   -0.0001151000
  -0.0006791400   -0.0008974400    0.0002692700
   0.0001308700   -0.0002286900   -0.0001549900
  -0.0005070100    0.0005730800   -0.0011077400
  -0.0004003200    0.0007042900    0.0016573500
   0.0005407700   -0.0002101900   -0.0002404200
   0.0000605700   -0.0005881800    0.0014896400
  -0.0002577300   -0.0000068400    0.0004600000
   0.0000638100    0.0001166000    0.0007842000
   0.0000444100   -0.0000447300    0.0004022300
  -0.0006340400   -0.0000383400   -0.0004075500
   0.0001527300   -0.0002568900    0.0004631900
   0.0004429600    0.0004080800    0.0016729400
   0.0000351700   -0.0005163200    0.0014708700
   0.0001154300   -0.0002449900    0.0003797200
  -0.0010208400    0.0005436400    0.0020167000
   0.0007674600    0.0003321400    0.0017503600
   0.0002633400    0.0000079400    0.0003369400
  -0.0001429900    0.0000796500    0.0003303700
   0.0000380200   -0.0001761800    0.0003192800
   0.0001110900   -0.0000960500    0.0004282400
  -0.0002732600    0.0001406700    0.0003228500
  -0.0015862000    0.0079815400   -0.0017727800
   0.0008515400   -0.0019152600   -0.0001227600
  -0.0146573400    0.0102554300   -0.0089387300
   0.0024377900    0.0050711000   -0.0052461800
   0.0004342000    0.0002084500   -0.0001934600
  -0.0003945000   -0.0011556800   -0.0001365200
  -0.0003739800   -0.0010258100   -0.0000024400
   0.0010429700    0.0002272700   -0.0002441200
  -0.0000415800    0.0009239200   -0.0001775600

37   
  0.0033749968256213  -0.0058456659773597   0.0073781830899067
   0.0019140800   -0.0033104200    0.0161637300
   0.0004351400   -0.0000364000    0.0011688300
  -0.0001390700    0.0012989700   -0.0003486500
   0.0002192100    0.0008137500   -0.0001463500
   0.0006475800   -0.0006431200    0.0009575600
  -0.0001404700    0.0002599800    0.0001483100
  -0.0002774000   -0.0002128600    0.0006112400
  -0.0000422500    0.0000894400    0.0001129700
  -0.0011041400   -0.0007276400    0.0001979200
   0.0004057600   -0.0006847100   -0.0016919600
  -0.0015403600    0.0008116500   -0.0006818900
  -0.0002792500   -0.0006600200   -0.0006029600
   0.0003639900   -0.0013127300   -0.0005855200
  -0.0009282700    0.0005549600   -0.0006999200
  -0.0001447000    0.0002755100   -0.0004980300
   0.0017395100    0.0007179400   -0.0006260600
  -0.0000247800    0.0000585800   -0.0004150800
   0.0004250100    0.0003750300   -0.0006525900
   0.0015784700   -0.0176469000    0.0090899700
  -0.0011710400    0.0017133700    0.0001173700
   0.0062765700   -0.0055196300    0.0016035500
   0.0054702300   -0.0005652700    0.0052491800
  -0.0008607200    0.0000016700   -0.0001863900
   0.0004103400    0.0006336500    0.0004870100
   0.0006889200    0.0007887900    0.0003010000
  -0.0010451900    0.0001011000   -0.0000660400
   0.0004563200   -0.0007110300    0.0001522000
  -0.0000337800   -0.0000144400   -0.0010940400
  -0.0000651500    0.0002223900   -0.0003785100
   0.0006034200   -0.0003240400   -0.0024250100
  -0.0003308500   -0.0001234400   -0.0017627500
  -0.0001261700   -0.0001116100   -0.0002276700
   0.0001437700    0.0000276100   -0.0004662000
  -0.0000746100    0.0001635600   -0.0003786800
  -0.0001192500    0.0000127800   -0.0003852400
   0.0001517500   -0.0002613200   -0.0003488600
  -0.0230683900    0.0406127400   -0.0503466500
   0.0018686900   -0.0046488700   -0.0001432300
   0.0029806600   -0.0047825400   -0.0007553000
  -0.0017980700   -0.0028766600   -0.0003813100
   0.0026888400    0.0006715100   -0.0005043600
   0.0001527300   -0.0002391700   -0.0000400200
  -0.0006771500   -0.0018069300   -0.0000573200
   0.0001364600   -0.0002448600   -0.0000386900
   0.0026119800    0.0002146900   -0.0008104900
  -0.0001235900    0.0002401600    0.0010534400
   0.0002154500   -0.0001117500    0.0009315000
   0.0000277400   -0.0001929000    0.0009511100
  -0.0000910800    0.0000568100    0.0009434800
   0.0000320900    0.0000832800    0.0009410100
   0.0000474900   -0.0000550600    0.0003414500
  -0.0002847400   -0.0000567300    0.0009283800
   0.0000380800   -0.0000680800    0.0003241200
   0.0001670500    0.0001729400    0.0009725300
  -0.0003335800   -0.0038262000    0.0051050000
   0.0002820200   -0.0003354000    0.0001334000
  -0.0011323700    0.0010358200    0.0023006000
   0.0019801500    0.0018832900    0.0037010000
   0.0004235900   -0.0001366700    0.0003591200
  -0.0000952800    0.0000697900    0.0000097900
  -0.0001894300   -0.0001431100    0.0000744300
   0.0001879100   -0.0000795100    0.0001740600
  -0.0003171500    0.0000061400    0.0001727100
  -0.0003107300    0.0005957200    0.0015818600
   0.0001583700   -0.0003899500    0.0001321600
   0.0026342200   -0.0011644300    0.0057781400
  -0.0018239700   -0.0003230500    0.0036847800
  -0.0000011600    0.0000919100   -0.0000107300
  -0.0000900800   -0.0004063100    0.0003815400
  -0.0000739100   -0.0002202900    0.0002015700
   0.0002030300    0.0000569600    0.0000433300
   0.0000914900    0.0002615600    0.0001751600

37   
 -0.0033749968256213   0.0058456659773597  -0.0073781830899067
  -0.0018785600    0.0032506500   -0.0172914200
  -0.0004261800    0.0000722700   -0.0014466800
   0.0001418200   -0.0012684000    0.0000598800
  -0.0002230000   -0.0007760400   -0.0001453700
  -0.0006443400    0.0006720200   -0.0012440200
   0.0001406700   -0.0002267900   -0.0004296700
   0.0002702800    0.0002537400   -0.0008993900
   0.0000465800   -0.0000598100   -0.0003958900
   0.0011096500    0.0007643000   -0.0004929200
  -0.0003987900    0.0007131200    0.0013984500
   0.0015276100   -0.0007681000    0.0003934700
   0.0002782900    0.0006985600    0.0003230900
  -0.0003650400    0.0013384000    0.0003059300
   0.0009325200   -0.0005158400    0.0004144600
   0.0001483900   -0.0002369200    0.0002132700
  -0.0017277100   -0.0006707400    0.0003448200
   0.0000280400   -0.0000308600    0.0001373700
  -0.0004342600   -0.0003426400    0.0003832300
  -0.0016265900    0.0165815800   -0.0091218200
   0.0011730300   -0.0017453800   -0.0003980000
  -0.0063548400    0.0054716200   -0.0018308800
  -0.0054331600    0.0005442200   -0.0055652700
   0.0008579500   -0.0000353500   -0.0001019200
  -0.0004134800   -0.0006675600   -0.0007785700
  -0.0006792900   -0.0008270600   -0.0005804800
   0.0010422300   -0.0001304300   -0.0002178800
  -0.0004579900    0.0006715000   -0.0004383700
   0.0000383600   -0.0000245400    0.0007988900
   0.0000680400   -0.0002562800    0.0000983800
  -0.0006101300    0.0002920400    0.0021522200
   0.0003346900    0.0000929700    0.0014724800
   0.0001204700    0.0000760800   -0.0000526900
  -0.0001419900   -0.0000735400    0.0001771600
   0.0000733500   -0.0001988600    0.0000947200
   0.0001207200   -0.0000475800    0.0000974000
  -0.0001432600    0.0002303500    0.0000590500
   0.0231043300   -0.0394672600    0.0511558500
  -0.0018642000    0.0046749800    0.0003776900
  -0.0029405800    0.0048188800    0.0010292400
   0.0017736300    0.0029141500    0.0006506100
  -0.0026838600   -0.0006713100    0.0007336600
  -0.0001299000    0.0002472800    0.0003784700
   0.0006799800    0.0018539300    0.0003542400
  -0.0001770200    0.0002820000    0.0003384600
  -0.0025866800   -0.0002232700    0.0010729300
   0.0001472700   -0.0002171800   -0.0007856300
  -0.0002466100    0.0001795800   -0.0006245400
   0.0000270500    0.0002165900   -0.0006982200
   0.0000341900   -0.0000581200   -0.0006668800
  -0.0000295800   -0.0000090600   -0.0006711600
  -0.0000018700    0.0000590600   -0.0000559700
   0.0002688000    0.0001456300   -0.0006467200
  -0.0000383600    0.0000285100   -0.0000933900
  -0.0001909800   -0.0001677700   -0.0006484200
   0.0002888900    0.0037872200   -0.0047454500
  -0.0002873900    0.0002544000    0.0001918800
   0.0011878200   -0.0010354700   -0.0020522600
  -0.0019840400   -0.0018950100   -0.0033421300
  -0.0003905900    0.0001434500   -0.0000767100
   0.0000903800   -0.0001011000    0.0002628600
   0.0002000700    0.0001046000    0.0002196400
  -0.0002330900    0.0000861000    0.0001507000
   0.0003145100   -0.0000723000    0.0000863500
   0.0003365600   -0.0006116600   -0.0012952900
  -0.0001116600    0.0004015500    0.0002033400
  -0.0026926000    0.0011571800   -0.0055308300
   0.0018471100    0.0002973400   -0.0034136200
  -0.0000590900   -0.0000867800    0.0003270600
   0.0000933100    0.0003236200   -0.0001169200
   0.0000190100    0.0002027300    0.0001297700
  -0.0002043800   -0.0001357800    0.0002271700
  -0.0000545200   -0.0002474000    0.0000811600
