# Sigma = 0.100000
       -0.7837169769        0.0000000000
       -0.7300970558        0.0000000000
       -0.6764771348        0.0000000000
       -0.6228572137        0.0000000000
       -0.5692372927        0.0000000000
       -0.5156173716        0.0000000000
       -0.4619974506        0.0000000000
       -0.4083775295        0.0000000000
       -0.3547576085        0.0000000004
       -0.3011376874        0.0000000066
       -0.2475177664        0.0000000942
       -0.1938978453        0.0000010095
       -0.1402779243        0.0000081697
       -0.0866580033        0.0000499667
       -0.0330380822        0.0002313617
        0.0205818388        0.0008132620
        0.0742017599        0.0021817461
        0.1278216809        0.0045192295
        0.1814416020        0.0074197682
        0.2350615230        0.0101934665
        0.2886814441        0.0127852950
        0.3423013651        0.0159030021
        0.3959212862        0.0200843965
        0.4495412072        0.0254267408
        0.5031611283        0.0322537994
        0.5567810493        0.0408886278
        0.6104009704        0.0504792763
        0.6640208914        0.0592039030
        0.7176408124        0.0665040050
        0.7712607335        0.0742073847
        0.8248806545        0.0842311250
        0.8785005756        0.0965844225
        0.9321204966        0.1111977046
        0.9857404177        0.1290150280
        1.0393603387        0.1491132449
        1.0929802598        0.1681844553
        1.1466001808        0.1849654667
        1.2002201019        0.2020364886
        1.2538400229        0.2224592052
        1.3074599440        0.2476085581
        1.3610798650        0.2778072306
        1.4146997861        0.3119224028
        1.4683197071        0.3471648422
        1.5219396281        0.3820607082
        1.5755595492        0.4190703606
        1.6291794702        0.4629698506
        1.6827993913        0.5170155549
        1.7364193123        0.5810666147
        1.7900392334        0.6540398551
        1.8436591544        0.7382482425
        1.8972790755        0.8407316226
        1.9508989965        0.9710149603
        2.0045189176        1.1382478843
        2.0581388386        1.3483404866
        2.1117587597        1.5992249084
        2.1653786807        1.8800331081
        2.2189986018        2.1862750094
        2.2726185228        2.5438839333
        2.3262384438        3.0066885677
        2.3798583649        3.5985685761
        2.4334782859        4.2370728834
        2.4870982070        4.7433648247
        2.5407181280        4.9717946478
        2.5943380491        4.9191743200
        2.6479579701        4.6840907148
        2.7015778912        4.3546577118
        2.7551978122        3.9718350465
        2.8088177333        3.5706590598
        2.8624376543        3.2026009954
        2.9160575754        2.9005391581
        2.9696774964        2.6368361139
        3.0232974175        2.3322595502
        3.0769173385        1.9204383458
        3.1305372595        1.4179644795
        3.1841571806        0.9270684780
        3.2377771016        0.5556557129
        3.2913970227        0.3389780923
        3.3450169437        0.2411298255
        3.3986368648        0.2092010084
        3.4522567858        0.2089084866
        3.5058767069        0.2231213036
        3.5594966279        0.2408713407
        3.6131165490        0.2552971471
        3.6667364700        0.2658765241
        3.7203563911        0.2770286404
        3.7739763121        0.2927565276
        3.8275962332        0.3122888813
        3.8812161542        0.3317960009
        3.9348360752        0.3504978643
        3.9884559963        0.3722834698
        4.0420759173        0.3994481101
        4.0956958384        0.4286089504
        4.1493157594        0.4567838226
        4.2029356805        0.4877546473
        4.2565556015        0.5271673185
        4.3101755226        0.5747685086
        4.3637954436        0.6278591682
        4.4174153647        0.6901156425
        4.4710352857        0.7694587079
        4.5246552068        0.8681892751
        4.5782751278        0.9842164972
        4.6318950489        1.1232917209
        4.6855149699        1.3015548391
        4.7391348909        1.5296902734
        4.7927548120        1.7919511951
        4.8463747330        2.0422063916
        4.8999946541        2.2289869721
        4.9536145751        2.3273514494
        5.0072344962        2.3387443165
        5.0608544172        2.2603305303
        5.1144743383        2.0702747885
        5.1680942593        1.7550301517
        5.2217141804        1.3449810721
        5.2753341014        0.9128800100
        5.3289540225        0.5377737406
        5.3825739435        0.2688830108
        5.4361938646        0.1114485292
        5.4898137856        0.0374624199
        5.5434337066        0.0100271664
        5.5970536277        0.0021070382
        5.6506735487        0.0003439553
        5.7042934698        0.0000432814
        5.7579133908        0.0000041743
        5.8115333119        0.0000003073
        5.8651532329        0.0000000172
        5.9187731540        0.0000000011
        5.9723930750        0.0000000088
        6.0260129961        0.0000001465
        6.0796329171        0.0000018583
        6.1332528382        0.0000178816
        6.1868727592        0.0001309833
        6.2404926803        0.0007345087
        6.2941126013        0.0031812472
        6.3477325223        0.0107947231
        6.4013524434        0.0293681612
        6.4549723644        0.0664413716
        6.5085922855        0.1316872055
        6.5622122065        0.2424477273
        6.6158321276        0.4310881903
        6.6694520486        0.7403399650
        6.7230719697        1.1996615805
        6.7766918907        1.8017646849
        6.8303118118        2.5071421846
        6.8839317328        3.2702144154
        6.9375516539        4.0450636674
        6.9911715749        4.7520053522
        7.0447914960        5.2581097554
        7.0984114170        5.4407829160
        7.1520313380        5.2934729842
        7.2056512591        4.9439810797
        7.2592711801        4.5541880020
        7.3128911012        4.2108691845
        7.3665110222        3.9028065442
        7.4201309433        3.5793409597
        7.4737508643        3.2250774847
        7.5273707854        2.8824409692
        7.5809907064        2.6085922047
        7.6346106275        2.4183144576
        7.6882305485        2.2632411796
        7.7418504696        2.0601016147
        7.7954703906        1.7552511942
        7.8490903117        1.3765748195
        7.9027102327        1.0171821284
        7.9563301537        0.7703103363
        8.0099500748        0.6886464821
        8.0635699958        0.7909441552
        8.1171899169        1.0808332816
        8.1708098379        1.5506231012
        8.2244297590        2.1677189378
        8.2780496800        2.8526497097
        8.3316696011        3.4685493825
        8.3852895221        3.8495795683
        8.4389094432        3.8777580225
        8.4925293642        3.5592968997
        8.5461492853        3.0211423676
        8.5997692063        2.4239402083
        8.6533891274        1.8760979019
        8.7070090484        1.4113294868
        8.7606289694        1.0186135901
        8.8142488905        0.6843246023
        8.8678688115        0.4131894647
        8.9214887326        0.2179172723
        8.9751086536        0.0985865492
        9.0287285747        0.0378559270
        9.0823484957        0.0122309526
        9.1359684168        0.0032869109
        9.1895883378        0.0007233899
        9.2432082589        0.0001281286
        9.2968281799        0.0000179679
        9.3504481010        0.0000019682
        9.4040680220        0.0000001667
        9.4576879431        0.0000000108
        9.5113078641        0.0000000005
        9.5649277851        0.0000000000
        9.6185477062        0.0000000000
        9.6721676272        0.0000000000
        9.7257875483        0.0000000000
        9.7794074693        0.0000000000
        9.8330273904        0.0000000000
        9.8866473114        0.0000000000
        9.9402672325        0.0000000000
