nqpoint: 255    
npath: 5      
segment_nqpoint:
- 51
- 51
- 51
- 51
- 51
labels:
- [ '$Gamma$', 'A' ]
- [ 'A', 'H' ]
- [ 'H', 'K' ]
- [ 'K', 'L' ]
- [ 'L', 'M' ]
reciprocal_lattice:
- [   0.24983820,  -0.14424415,   0.00000000 ] # a*
- [   0.24983820,   0.14424415,   0.00000000 ] # b*
- [   0.00000000,   0.00000000,   0.15237774 ] # c*
natom: 4      
lattice:
- [     2.001295222135524,    -3.466345005683571,     0.000000000000000 ] # a
- [     2.001295222135524,     3.466345005683571,     0.000000000000000 ] # b
- [     0.000000000000000,     0.000000000000000,     6.562638424031745 ] # c
points:
- symbol: Zn # 1
  coordinates: [  0.333333333333336,  0.666666666666664,  0.999819116547299 ]
  mass: 65.380000
- symbol: Zn # 2
  coordinates: [  0.666666666666664,  0.333333333333336,  0.499819116547299 ]
  mass: 65.380000
- symbol: S # 3
  coordinates: [  0.333333333333336,  0.666666666666664,  0.375180883452701 ]
  mass: 32.065000
- symbol: S # 4
  coordinates: [  0.666666666666664,  0.333333333333336,  0.875180883452701 ]
  mass: 32.065000

phonon:
- q-position: [    0.0000000,    0.0000000,    0.0000000 ]
  distance:    0.0000000
  band:
  - # 1
    frequency:    0.0000000502
  - # 2
    frequency:    0.0000002427
  - # 3
    frequency:    0.0000002843
  - # 4
    frequency:    2.1845971567
  - # 5
    frequency:    2.1845971567
  - # 6
    frequency:    4.9844103304
  - # 7
    frequency:    6.0763613318
  - # 8
    frequency:    6.3558645574
  - # 9
    frequency:    6.3558645574
  - # 10
    frequency:    6.3941805156
  - # 11
    frequency:    6.3941805156
  - # 12
    frequency:    8.1720483427

- q-position: [    0.0000000,    0.0000000,    0.0100000 ]
  distance:    0.0015238
  band:
  - # 1
    frequency:    0.0397134085
  - # 2
    frequency:    0.0397134085
  - # 3
    frequency:    0.0903113182
  - # 4
    frequency:    2.1844194179
  - # 5
    frequency:    2.1844194179
  - # 6
    frequency:    4.9832449067
  - # 7
    frequency:    6.0783293360
  - # 8
    frequency:    6.3558507553
  - # 9
    frequency:    6.3558507553
  - # 10
    frequency:    6.3941478505
  - # 11
    frequency:    6.3941478505
  - # 12
    frequency:    8.1730700400

- q-position: [    0.0000000,    0.0000000,    0.0200000 ]
  distance:    0.0030476
  band:
  - # 1
    frequency:    0.0794097669
  - # 2
    frequency:    0.0794097669
  - # 3
    frequency:    0.1805529892
  - # 4
    frequency:    2.1838860247
  - # 5
    frequency:    2.1838860247
  - # 6
    frequency:    4.9797577212
  - # 7
    frequency:    6.0842244760
  - # 8
    frequency:    6.3558094289
  - # 9
    frequency:    6.3558094289
  - # 10
    frequency:    6.3940499528
  - # 11
    frequency:    6.3940499528
  - # 12
    frequency:    8.1761241659

- q-position: [    0.0000000,    0.0000000,    0.0300000 ]
  distance:    0.0045713
  band:
  - # 1
    frequency:    0.1190720416
  - # 2
    frequency:    0.1190720416
  - # 3
    frequency:    0.2706556669
  - # 4
    frequency:    2.1829964477
  - # 5
    frequency:    2.1829964477
  - # 6
    frequency:    4.9739757847
  - # 7
    frequency:    6.0940202265
  - # 8
    frequency:    6.3557408177
  - # 9
    frequency:    6.3557408177
  - # 10
    frequency:    6.3938871160
  - # 11
    frequency:    6.3938871160
  - # 12
    frequency:    8.1811780681

- q-position: [    0.0000000,    0.0000000,    0.0400000 ]
  distance:    0.0060951
  band:
  - # 1
    frequency:    0.1586832317
  - # 2
    frequency:    0.1586832317
  - # 3
    frequency:    0.3605506025
  - # 4
    frequency:    2.1817498063
  - # 5
    frequency:    2.1817498063
  - # 6
    frequency:    4.9659433081
  - # 7
    frequency:    6.1076726880
  - # 8
    frequency:    6.3556453195
  - # 9
    frequency:    6.3556453195
  - # 10
    frequency:    6.3936598278
  - # 11
    frequency:    6.3936598278
  - # 12
    frequency:    8.1881781331

- q-position: [    0.0000000,    0.0000000,    0.0500000 ]
  distance:    0.0076189
  band:
  - # 1
    frequency:    0.1982263858
  - # 2
    frequency:    0.1982263858
  - # 3
    frequency:    0.4501699311
  - # 4
    frequency:    2.1801448722
  - # 5
    frequency:    2.1801448722
  - # 6
    frequency:    4.9557205395
  - # 7
    frequency:    6.1251210404
  - # 8
    frequency:    6.3555234893
  - # 9
    frequency:    6.3555234893
  - # 10
    frequency:    6.3933687688
  - # 11
    frequency:    6.3933687688
  - # 12
    frequency:    8.1970509486

- q-position: [    0.0000000,    0.0000000,    0.0600000 ]
  distance:    0.0091427
  band:
  - # 1
    frequency:    0.2376846181
  - # 2
    frequency:    0.2376846181
  - # 3
    frequency:    0.5394469440
  - # 4
    frequency:    2.1781800732
  - # 5
    frequency:    2.1781800732
  - # 6
    frequency:    4.9433822264
  - # 7
    frequency:    6.1462881657
  - # 8
    frequency:    6.3553760372
  - # 9
    frequency:    6.3553760372
  - # 10
    frequency:    6.3930148107
  - # 11
    frequency:    6.3930148107
  - # 12
    frequency:    8.2077048417

- q-position: [    0.0000000,    0.0000000,    0.0700000 ]
  distance:    0.0106664
  band:
  - # 1
    frequency:    0.2770411246
  - # 2
    frequency:    0.2770411246
  - # 3
    frequency:    0.6283163441
  - # 4
    frequency:    2.1758534985
  - # 5
    frequency:    2.1758534985
  - # 6
    frequency:    4.9290157827
  - # 7
    frequency:    6.1710814206
  - # 8
    frequency:    6.3552038253
  - # 9
    frequency:    6.3552038253
  - # 10
    frequency:    6.3925990128
  - # 11
    frequency:    6.3925990128
  - # 12
    frequency:    8.2200317141

- q-position: [    0.0000000,    0.0000000,    0.0800000 ]
  distance:    0.0121902
  band:
  - # 1
    frequency:    0.3162791999
  - # 2
    frequency:    0.3162791999
  - # 3
    frequency:    0.7167144794
  - # 4
    frequency:    2.1731629058
  - # 5
    frequency:    2.1731629058
  - # 6
    frequency:    4.9127192479
  - # 7
    frequency:    6.1993935448
  - # 8
    frequency:    6.3550078646
  - # 9
    frequency:    6.3550078646
  - # 10
    frequency:    6.3921226192
  - # 11
    frequency:    6.3921226192
  - # 12
    frequency:    8.2339090863

- q-position: [    0.0000000,    0.0000000,    0.0900000 ]
  distance:    0.0137140
  band:
  - # 1
    frequency:    0.3553822531
  - # 2
    frequency:    0.3553822531
  - # 3
    frequency:    0.8045795539
  - # 4
    frequency:    2.1701057283
  - # 5
    frequency:    2.1701057283
  - # 6
    frequency:    4.8945991302
  - # 7
    frequency:    6.2311036833
  - # 8
    frequency:    6.3547893112
  - # 9
    frequency:    6.3547893112
  - # 10
    frequency:    6.3915870546
  - # 11
    frequency:    6.3915870546
  - # 12
    frequency:    8.2492022617

- q-position: [    0.0000000,    0.0000000,    0.1000000 ]
  distance:    0.0152378
  band:
  - # 1
    frequency:    0.3943338243
  - # 2
    frequency:    0.3943338243
  - # 3
    frequency:    0.8918518139
  - # 4
    frequency:    2.1666790844
  - # 5
    frequency:    2.1666790844
  - # 6
    frequency:    4.8747682179
  - # 7
    frequency:    6.2660785018
  - # 8
    frequency:    6.3545494615
  - # 9
    frequency:    6.3545494615
  - # 10
    frequency:    6.3909939197
  - # 11
    frequency:    6.3909939197
  - # 12
    frequency:    8.2657665267

- q-position: [    0.0000000,    0.0000000,    0.1100000 ]
  distance:    0.0167616
  band:
  - # 1
    frequency:    0.4331176003
  - # 2
    frequency:    0.4331176003
  - # 3
    frequency:    0.9784737079
  - # 4
    frequency:    2.1628797867
  - # 5
    frequency:    2.1628797867
  - # 6
    frequency:    4.8533434348
  - # 7
    frequency:    6.3041733729
  - # 8
    frequency:    6.3542897477
  - # 9
    frequency:    6.3542897477
  - # 10
    frequency:    6.3903449859
  - # 11
    frequency:    6.3903449859
  - # 12
    frequency:    8.2834493121

- q-position: [    0.0000000,    0.0000000,    0.1200000 ]
  distance:    0.0182853
  band:
  - # 1
    frequency:    0.4717174314
  - # 2
    frequency:    0.4717174314
  - # 3
    frequency:    1.0643900222
  - # 4
    frequency:    2.1587043538
  - # 5
    frequency:    2.1587043538
  - # 6
    frequency:    4.8304438022
  - # 7
    frequency:    6.3452336104
  - # 8
    frequency:    6.3540117317
  - # 9
    frequency:    6.3540117317
  - # 10
    frequency:    6.3896421899
  - # 11
    frequency:    6.3896421899
  - # 12
    frequency:    8.3020922548

- q-position: [    0.0000000,    0.0000000,    0.1300000 ]
  distance:    0.0198091
  band:
  - # 1
    frequency:    0.5101173466
  - # 2
    frequency:    0.5101173466
  - # 3
    frequency:    1.1495479910
  - # 4
    frequency:    2.1541490222
  - # 5
    frequency:    2.1541490222
  - # 6
    frequency:    4.8061885553
  - # 7
    frequency:    6.3537170992
  - # 8
    frequency:    6.3537170992
  - # 9
    frequency:    6.3888876269
  - # 10
    frequency:    6.3888876269
  - # 11
    frequency:    6.3890957313
  - # 12
    frequency:    8.3215331140

- q-position: [    0.0000000,    0.0000000,    0.1400000 ]
  distance:    0.0213329
  band:
  - # 1
    frequency:    0.5483015701
  - # 2
    frequency:    0.5483015701
  - # 3
    frequency:    1.2338973837
  - # 4
    frequency:    2.1492097593
  - # 5
    frequency:    2.1492097593
  - # 6
    frequency:    4.7806954462
  - # 7
    frequency:    6.3534076530
  - # 8
    frequency:    6.3534076530
  - # 9
    frequency:    6.3880835440
  - # 10
    frequency:    6.3880835440
  - # 11
    frequency:    6.4355887241
  - # 12
    frequency:    8.3416075105

- q-position: [    0.0000000,    0.0000000,    0.1500000 ]
  distance:    0.0228567
  band:
  - # 1
    frequency:    0.5862545369
  - # 2
    frequency:    0.5862545369
  - # 3
    frequency:    1.3173905709
  - # 4
    frequency:    2.1438822777
  - # 5
    frequency:    2.1438822777
  - # 6
    frequency:    4.7540792526
  - # 7
    frequency:    6.3530853060
  - # 8
    frequency:    6.3530853060
  - # 9
    frequency:    6.3872323330
  - # 10
    frequency:    6.3872323330
  - # 11
    frequency:    6.4845353048
  - # 12
    frequency:    8.3621504709

- q-position: [    0.0000000,    0.0000000,    0.1600000 ]
  distance:    0.0243804
  band:
  - # 1
    frequency:    0.6239609082
  - # 2
    frequency:    0.6239609082
  - # 3
    frequency:    1.3999825708
  - # 4
    frequency:    2.1381620506
  - # 5
    frequency:    2.1381620506
  - # 6
    frequency:    4.7264505004
  - # 7
    frequency:    6.3527520733
  - # 8
    frequency:    6.3527520733
  - # 9
    frequency:    6.3863365217
  - # 10
    frequency:    6.3863365217
  - # 11
    frequency:    6.5357531464
  - # 12
    frequency:    8.3829977722

- q-position: [    0.0000000,    0.0000000,    0.1700000 ]
  distance:    0.0259042
  band:
  - # 1
    frequency:    0.6614055871
  - # 2
    frequency:    0.6614055871
  - # 3
    frequency:    1.4816310807
  - # 4
    frequency:    2.1320443275
  - # 5
    frequency:    2.1320443275
  - # 6
    frequency:    4.6979143975
  - # 7
    frequency:    6.3524100644
  - # 8
    frequency:    6.3524100644
  - # 9
    frequency:    6.3853987663
  - # 10
    frequency:    6.3853987663
  - # 11
    frequency:    6.5890560639
  - # 12
    frequency:    8.4039870885

- q-position: [    0.0000000,    0.0000000,    0.1800000 ]
  distance:    0.0274280
  band:
  - # 1
    frequency:    0.6985737343
  - # 2
    frequency:    0.6985737343
  - # 3
    frequency:    1.5622964923
  - # 4
    frequency:    2.1255241511
  - # 5
    frequency:    2.1255241511
  - # 6
    frequency:    4.6685699696
  - # 7
    frequency:    6.3520614743
  - # 8
    frequency:    6.3520614743
  - # 9
    frequency:    6.3844218419
  - # 10
    frequency:    6.3844218419
  - # 11
    frequency:    6.6442551473
  - # 12
    frequency:    8.4249589517

- q-position: [    0.0000000,    0.0000000,    0.1900000 ]
  distance:    0.0289518
  band:
  - # 1
    frequency:    0.7354507824
  - # 2
    frequency:    0.7354507824
  - # 3
    frequency:    1.6419418988
  - # 4
    frequency:    2.1185963757
  - # 5
    frequency:    2.1185963757
  - # 6
    frequency:    4.6385093844
  - # 7
    frequency:    6.3517085750
  - # 8
    frequency:    6.3517085750
  - # 9
    frequency:    6.3834086335
  - # 10
    frequency:    6.3834086335
  - # 11
    frequency:    6.7011598311
  - # 12
    frequency:    8.4457575404

- q-position: [    0.0000000,    0.0000000,    0.2000000 ]
  distance:    0.0304755
  band:
  - # 1
    frequency:    0.7720224516
  - # 2
    frequency:    0.7720224516
  - # 3
    frequency:    1.7205330906
  - # 4
    frequency:    2.1112556851
  - # 5
    frequency:    2.1112556851
  - # 6
    frequency:    4.6078174478
  - # 7
    frequency:    6.3513537058
  - # 8
    frequency:    6.3513537058
  - # 9
    frequency:    6.3823621255
  - # 10
    frequency:    6.3823621255
  - # 11
    frequency:    6.7595788932
  - # 12
    frequency:    8.4662313154

- q-position: [    0.0000000,    0.0000000,    0.2100000 ]
  distance:    0.0319993
  band:
  - # 1
    frequency:    0.8082747640
  - # 2
    frequency:    0.8082747640
  - # 3
    frequency:    1.7980385475
  - # 4
    frequency:    2.1034966126
  - # 5
    frequency:    2.1034966126
  - # 6
    frequency:    4.5765712534
  - # 7
    frequency:    6.3509992638
  - # 8
    frequency:    6.3509992638
  - # 9
    frequency:    6.3812853924
  - # 10
    frequency:    6.3812853924
  - # 11
    frequency:    6.8193213810
  - # 12
    frequency:    8.4862335205

- q-position: [    0.0000000,    0.0000000,    0.2200000 ]
  distance:    0.0335231
  band:
  - # 1
    frequency:    0.8441940584
  - # 2
    frequency:    0.8441940584
  - # 3
    frequency:    1.8744294251
  - # 4
    frequency:    2.0953135605
  - # 5
    frequency:    2.0953135605
  - # 6
    frequency:    4.5448399665
  - # 7
    frequency:    6.3506476938
  - # 8
    frequency:    6.3506476938
  - # 9
    frequency:    6.3801815873
  - # 10
    frequency:    6.3801815873
  - # 11
    frequency:    6.8801974590
  - # 12
    frequency:    8.5056225683

- q-position: [    0.0000000,    0.0000000,    0.2300000 ]
  distance:    0.0350469
  band:
  - # 1
    frequency:    0.8797670039
  - # 2
    frequency:    0.8797670039
  - # 3
    frequency:    1.9496795398
  - # 4
    frequency:    2.0867008212
  - # 5
    frequency:    2.0867008212
  - # 6
    frequency:    4.5126847259
  - # 7
    frequency:    6.3503014780
  - # 8
    frequency:    6.3503014780
  - # 9
    frequency:    6.3790539315
  - # 10
    frequency:    6.3790539315
  - # 11
    frequency:    6.9420191797
  - # 12
    frequency:    8.5242623285

- q-position: [    0.0000000,    0.0000000,    0.2400000 ]
  distance:    0.0365707
  band:
  - # 1
    frequency:    0.9149806145
  - # 2
    frequency:    0.9149806145
  - # 3
    frequency:    2.0237653533
  - # 4
    frequency:    2.0776525984
  - # 5
    frequency:    2.0776525984
  - # 6
    frequency:    4.4801586464
  - # 7
    frequency:    6.3499631255
  - # 8
    frequency:    6.3499631255
  - # 9
    frequency:    6.3779057029
  - # 10
    frequency:    6.3779057029
  - # 11
    frequency:    7.0046011776
  - # 12
    frequency:    8.5420223359

- q-position: [    0.0000000,    0.0000000,    0.2500000 ]
  distance:    0.0380944
  band:
  - # 1
    frequency:    0.9498222620
  - # 2
    frequency:    0.9498222620
  - # 3
    frequency:    2.0681630288
  - # 4
    frequency:    2.0681630288
  - # 5
    frequency:    2.0966659573
  - # 6
    frequency:    4.4473069071
  - # 7
    frequency:    6.3496351615
  - # 8
    frequency:    6.3496351615
  - # 9
    frequency:    6.3767402246
  - # 10
    frequency:    6.3767402246
  - # 11
    frequency:    7.0677612872
  - # 12
    frequency:    8.5587779332

- q-position: [    0.0000000,    0.0000000,    0.2600000 ]
  distance:    0.0396182
  band:
  - # 1
    frequency:    0.9842796894
  - # 2
    frequency:    0.9842796894
  - # 3
    frequency:    2.0582262043
  - # 4
    frequency:    2.0582262043
  - # 5
    frequency:    2.1683630600
  - # 6
    frequency:    4.4141669108
  - # 7
    frequency:    6.3493201161
  - # 8
    frequency:    6.3493201161
  - # 9
    frequency:    6.3755608530
  - # 10
    frequency:    6.3755608530
  - # 11
    frequency:    7.1313210900
  - # 12
    frequency:    8.5744103621

- q-position: [    0.0000000,    0.0000000,    0.2700000 ]
  distance:    0.0411420
  band:
  - # 1
    frequency:    1.0183410238
  - # 2
    frequency:    1.0183410238
  - # 3
    frequency:    2.0478361950
  - # 4
    frequency:    2.0478361950
  - # 5
    frequency:    2.2388409743
  - # 6
    frequency:    4.3807685048
  - # 7
    frequency:    6.3490205135
  - # 8
    frequency:    6.3490205135
  - # 9
    frequency:    6.3743709660
  - # 10
    frequency:    6.3743709660
  - # 11
    frequency:    7.1951063928
  - # 12
    frequency:    8.5888068138

- q-position: [    0.0000000,    0.0000000,    0.2800000 ]
  distance:    0.0426658
  band:
  - # 1
    frequency:    1.0519947884
  - # 2
    frequency:    1.0519947884
  - # 3
    frequency:    2.0369870717
  - # 4
    frequency:    2.0369870717
  - # 5
    frequency:    2.3080866083
  - # 6
    frequency:    4.3471342504
  - # 7
    frequency:    6.3487388608
  - # 8
    frequency:    6.3487388608
  - # 9
    frequency:    6.3731739508
  - # 10
    frequency:    6.3731739508
  - # 11
    frequency:    7.2589476423
  - # 12
    frequency:    8.6018604484

- q-position: [    0.0000000,    0.0000000,    0.2900000 ]
  distance:    0.0441895
  band:
  - # 1
    frequency:    1.0852299146
  - # 2
    frequency:    1.0852299146
  - # 3
    frequency:    2.0256729295
  - # 4
    frequency:    2.0256729295
  - # 5
    frequency:    2.3760894579
  - # 6
    frequency:    4.3132797337
  - # 7
    frequency:    6.3484776363
  - # 8
    frequency:    6.3484776363
  - # 9
    frequency:    6.3719731914
  - # 10
    frequency:    6.3719731914
  - # 11
    frequency:    7.3226802801
  - # 12
    frequency:    8.6134703920

- q-position: [    0.0000000,    0.0000000,    0.3000000 ]
  distance:    0.0457133
  band:
  - # 1
    frequency:    1.1180357532
  - # 2
    frequency:    1.1180357532
  - # 3
    frequency:    2.0138879111
  - # 4
    frequency:    2.0138879111
  - # 5
    frequency:    2.4428416012
  - # 6
    frequency:    4.2792139083
  - # 7
    frequency:    6.3482392788
  - # 8
    frequency:    6.3482392788
  - # 9
    frequency:    6.3707720569
  - # 10
    frequency:    6.3707720569
  - # 11
    frequency:    7.3861450436
  - # 12
    frequency:    8.6235417176

- q-position: [    0.0000000,    0.0000000,    0.3100000 ]
  distance:    0.0472371
  band:
  - # 1
    frequency:    1.1504020852
  - # 2
    frequency:    1.1504020852
  - # 3
    frequency:    2.0016262301
  - # 4
    frequency:    2.0016262301
  - # 5
    frequency:    2.5083376947
  - # 6
    frequency:    4.2449394644
  - # 7
    frequency:    6.3480261759
  - # 8
    frequency:    6.3480261759
  - # 9
    frequency:    6.3695738888
  - # 10
    frequency:    6.3695738888
  - # 11
    frequency:    7.4491882174
  - # 12
    frequency:    8.6319854149

- q-position: [    0.0000000,    0.0000000,    0.3200000 ]
  distance:    0.0487609
  band:
  - # 1
    frequency:    1.1823191321
  - # 2
    frequency:    1.1823191321
  - # 3
    frequency:    1.9888821949
  - # 4
    frequency:    1.9888821949
  - # 5
    frequency:    2.5725749697
  - # 6
    frequency:    4.2104532175
  - # 7
    frequency:    6.3478406531
  - # 8
    frequency:    6.3478406531
  - # 9
    frequency:    6.3683819888
  - # 10
    frequency:    6.3683819888
  - # 11
    frequency:    7.5116618400
  - # 12
    frequency:    8.6387183544

- q-position: [    0.0000000,    0.0000000,    0.3300000 ]
  distance:    0.0502847
  band:
  - # 1
    frequency:    1.2137775651
  - # 2
    frequency:    1.2137775651
  - # 3
    frequency:    1.9756502317
  - # 4
    frequency:    1.9756502317
  - # 5
    frequency:    2.6355532294
  - # 6
    frequency:    4.1757465120
  - # 7
    frequency:    6.3476849629
  - # 8
    frequency:    6.3476849629
  - # 9
    frequency:    6.3671996071
  - # 10
    frequency:    6.3671996071
  - # 11
    frequency:    7.5734238708
  - # 12
    frequency:    8.6436632478

- q-position: [    0.0000000,    0.0000000,    0.3400000 ]
  distance:    0.0518084
  band:
  - # 1
    frequency:    1.2447685146
  - # 2
    frequency:    1.2447685146
  - # 3
    frequency:    1.9619249083
  - # 4
    frequency:    1.9619249083
  - # 5
    frequency:    2.6972748444
  - # 6
    frequency:    4.1408056349
  - # 7
    frequency:    6.3475612737
  - # 8
    frequency:    6.3475612737
  - # 9
    frequency:    6.3660299300
  - # 10
    frequency:    6.3660299300
  - # 11
    frequency:    7.6343383218
  - # 12
    frequency:    8.6467486082

- q-position: [    0.0000000,    0.0000000,    0.3500000 ]
  distance:    0.0533322
  band:
  - # 1
    frequency:    1.2752835777
  - # 2
    frequency:    1.2752835777
  - # 3
    frequency:    1.9477009573
  - # 4
    frequency:    1.9477009573
  - # 5
    frequency:    2.7577447466
  - # 6
    frequency:    4.1056122353
  - # 7
    frequency:    6.3474716592
  - # 8
    frequency:    6.3474716592
  - # 9
    frequency:    6.3648760685
  - # 10
    frequency:    6.3648760685
  - # 11
    frequency:    7.6942753582
  - # 12
    frequency:    8.6479087122

- q-position: [    0.0000000,    0.0000000,    0.3600000 ]
  distance:    0.0548560
  band:
  - # 1
    frequency:    1.3053148262
  - # 2
    frequency:    1.3053148262
  - # 3
    frequency:    1.9329732985
  - # 4
    frequency:    1.9329732985
  - # 5
    frequency:    2.8169704208
  - # 6
    frequency:    4.0701437472
  - # 7
    frequency:    6.3474180884
  - # 8
    frequency:    6.3474180884
  - # 9
    frequency:    6.3637410465
  - # 10
    frequency:    6.3637410465
  - # 11
    frequency:    7.7531113715
  - # 12
    frequency:    8.6470835644

- q-position: [    0.0000000,    0.0000000,    0.3700000 ]
  distance:    0.0563798
  band:
  - # 1
    frequency:    1.3348548130
  - # 2
    frequency:    1.3348548130
  - # 3
    frequency:    1.9177370619
  - # 4
    frequency:    1.9177370619
  - # 5
    frequency:    2.8749618911
  - # 6
    frequency:    4.0343738109
  - # 7
    frequency:    6.3474024156
  - # 8
    frequency:    6.3474024156
  - # 9
    frequency:    6.3626277903
  - # 10
    frequency:    6.3626277903
  - # 11
    frequency:    7.8107290304
  - # 12
    frequency:    8.6442188667

- q-position: [    0.0000000,    0.0000000,    0.3800000 ]
  distance:    0.0579035
  band:
  - # 1
    frequency:    1.3638965776
  - # 2
    frequency:    1.3638965776
  - # 3
    frequency:    1.9019876098
  - # 4
    frequency:    1.9019876098
  - # 5
    frequency:    2.9317317037
  - # 6
    frequency:    3.9982726917
  - # 7
    frequency:    6.3474263705
  - # 8
    frequency:    6.3474263705
  - # 9
    frequency:    6.3615391174
  - # 10
    frequency:    6.3615391174
  - # 11
    frequency:    7.8670173104
  - # 12
    frequency:    8.6392659923

- q-position: [    0.0000000,    0.0000000,    0.3900000 ]
  distance:    0.0594273
  band:
  - # 1
    frequency:    1.3924336516
  - # 2
    frequency:    1.3924336516
  - # 3
    frequency:    1.8857205582
  - # 4
    frequency:    1.8857205582
  - # 5
    frequency:    2.9872949022
  - # 6
    frequency:    3.9618076923
  - # 7
    frequency:    6.3474915495
  - # 8
    frequency:    6.3474915495
  - # 9
    frequency:    6.3604777261
  - # 10
    frequency:    6.3604777261
  - # 11
    frequency:    7.9218715067
  - # 12
    frequency:    8.6321819642

- q-position: [    0.0000000,    0.0000000,    0.4000000 ]
  distance:    0.0609511
  band:
  - # 1
    frequency:    1.4204600625
  - # 2
    frequency:    1.4204600625
  - # 3
    frequency:    1.8689317978
  - # 4
    frequency:    1.8689317978
  - # 5
    frequency:    3.0416689964
  - # 6
    frequency:    3.9249435569
  - # 7
    frequency:    6.3475994068
  - # 8
    frequency:    6.3475994068
  - # 9
    frequency:    6.3594461861
  - # 10
    frequency:    6.3594461861
  - # 11
    frequency:    7.9751932335
  - # 12
    frequency:    8.6229294412

- q-position: [    0.0000000,    0.0000000,    0.4100000 ]
  distance:    0.0624749
  band:
  - # 1
    frequency:    1.4479703365
  - # 2
    frequency:    1.4479703365
  - # 3
    frequency:    1.8516175149
  - # 4
    frequency:    1.8516175149
  - # 5
    frequency:    3.0948739229
  - # 6
    frequency:    3.8876428659
  - # 7
    frequency:    6.3477512462
  - # 8
    frequency:    6.3477512462
  - # 9
    frequency:    6.3584469293
  - # 10
    frequency:    6.3584469293
  - # 11
    frequency:    8.0268904109
  - # 12
    frequency:    8.6114767072

- q-position: [    0.0000000,    0.0000000,    0.4200000 ]
  distance:    0.0639987
  band:
  - # 1
    frequency:    1.4749595010
  - # 2
    frequency:    1.4749595010
  - # 3
    frequency:    1.8337742108
  - # 4
    frequency:    1.8337742108
  - # 5
    frequency:    3.1469319950
  - # 6
    frequency:    3.8498664176
  - # 7
    frequency:    6.3479482140
  - # 8
    frequency:    6.3479482140
  - # 9
    frequency:    6.3574822404
  - # 10
    frequency:    6.3574822404
  - # 11
    frequency:    8.0768772422
  - # 12
    frequency:    8.5977976687

- q-position: [    0.0000000,    0.0000000,    0.4300000 ]
  distance:    0.0655224
  band:
  - # 1
    frequency:    1.5014230854
  - # 2
    frequency:    1.5014230854
  - # 3
    frequency:    1.8153987208
  - # 4
    frequency:    1.8153987208
  - # 5
    frequency:    3.1978678438
  - # 6
    frequency:    3.8115735975
  - # 7
    frequency:    6.3481912918
  - # 8
    frequency:    6.3481912918
  - # 9
    frequency:    6.3565542499
  - # 10
    frequency:    6.3565542499
  - # 11
    frequency:    8.1250741836
  - # 12
    frequency:    8.5818718558

- q-position: [    0.0000000,    0.0000000,    0.4400000 ]
  distance:    0.0670462
  band:
  - # 1
    frequency:    1.5273571213
  - # 2
    frequency:    1.5273571213
  - # 3
    frequency:    1.7964882321
  - # 4
    frequency:    1.7964882321
  - # 5
    frequency:    3.2477083464
  - # 6
    frequency:    3.7727227321
  - # 7
    frequency:    6.3484812903
  - # 8
    frequency:    6.3484812903
  - # 9
    frequency:    6.3556649256
  - # 10
    frequency:    6.3556649256
  - # 11
    frequency:    8.1714079082
  - # 12
    frequency:    8.5636844305

- q-position: [    0.0000000,    0.0000000,    0.4500000 ]
  distance:    0.0685700
  band:
  - # 1
    frequency:    1.5527581413
  - # 2
    frequency:    1.5527581413
  - # 3
    frequency:    1.7770403019
  - # 4
    frequency:    1.7770403019
  - # 5
    frequency:    3.2964825417
  - # 6
    frequency:    3.7332714276
  - # 7
    frequency:    6.3488188436
  - # 8
    frequency:    6.3488188436
  - # 9
    frequency:    6.3548160671
  - # 10
    frequency:    6.3548160671
  - # 11
    frequency:    8.2158112648
  - # 12
    frequency:    8.5432261988

- q-position: [    0.0000000,    0.0000000,    0.4600000 ]
  distance:    0.0700938
  band:
  - # 1
    frequency:    1.5776231771
  - # 2
    frequency:    1.5776231771
  - # 3
    frequency:    1.7570528728
  - # 4
    frequency:    1.7570528728
  - # 5
    frequency:    3.3442215340
  - # 6
    frequency:    3.6931768910
  - # 7
    frequency:    6.3492044048
  - # 8
    frequency:    6.3492044048
  - # 9
    frequency:    6.3540092990
  - # 10
    frequency:    6.3540092990
  - # 11
    frequency:    8.2582232345
  - # 12
    frequency:    8.5204936290

- q-position: [    0.0000000,    0.0000000,    0.4700000 ]
  distance:    0.0716175
  band:
  - # 1
    frequency:    1.6019497559
  - # 2
    frequency:    1.6019497559
  - # 3
    frequency:    1.7365242889
  - # 4
    frequency:    1.7365242889
  - # 5
    frequency:    3.3909583800
  - # 6
    frequency:    3.6523962345
  - # 7
    frequency:    6.3496382417
  - # 8
    frequency:    6.3496382417
  - # 9
    frequency:    6.3532460660
  - # 10
    frequency:    6.3532460660
  - # 11
    frequency:    8.2985888844
  - # 12
    frequency:    8.4954888739

- q-position: [    0.0000000,    0.0000000,    0.4800000 ]
  distance:    0.0731413
  band:
  - # 1
    frequency:    1.6257358966
  - # 2
    frequency:    1.6257358966
  - # 3
    frequency:    1.7154533096
  - # 4
    frequency:    1.7154533096
  - # 5
    frequency:    3.4367279629
  - # 6
    frequency:    3.6108867618
  - # 7
    frequency:    6.3501204337
  - # 8
    frequency:    6.3501204337
  - # 9
    frequency:    6.3525276289
  - # 10
    frequency:    6.3525276289
  - # 11
    frequency:    8.3368593206
  - # 12
    frequency:    8.4682197979

- q-position: [    0.0000000,    0.0000000,    0.4900000 ]
  distance:    0.0746651
  band:
  - # 1
    frequency:    1.6489801037
  - # 2
    frequency:    1.6489801037
  - # 3
    frequency:    1.6938391237
  - # 4
    frequency:    1.6938391237
  - # 5
    frequency:    3.4815668489
  - # 6
    frequency:    3.5686062357
  - # 7
    frequency:    6.3506508691
  - # 8
    frequency:    6.3506508691
  - # 9
    frequency:    6.3518550606
  - # 10
    frequency:    6.3518550606
  - # 11
    frequency:    8.3729916411
  - # 12
    frequency:    8.4387000082

- q-position: [    0.0000000,    0.0000000,    0.5000000 ]
  distance:    0.0761889
  band:
  - # 1
    frequency:    1.6716813610
  - # 2
    frequency:    1.6716813610
  - # 3
    frequency:    1.6716813610
  - # 4
    frequency:    1.6716813610
  - # 5
    frequency:    3.5255131276
  - # 6
    frequency:    3.5255131276
  - # 7
    frequency:    6.3512292439
  - # 8
    frequency:    6.3512292439
  - # 9
    frequency:    6.3512292439
  - # 10
    frequency:    6.3512292439
  - # 11
    frequency:    8.4069488892
  - # 12
    frequency:    8.4069488892

- q-position: [    0.0000000,    0.0000000,    0.5000000 ]
  distance:    0.0761889
  band:
  - # 1
    frequency:    1.6716813610
  - # 2
    frequency:    1.6716813610